     6
  Step:  1000            Position(A)                                  Velocity(au)
C        -0.69553109    -0.00297268    -0.03381931    -0.00014503     0.00002129    -0.00007850
C         0.65502913     0.00364994    -0.05216568     0.00022378     0.00000862    -0.00012417
H        -1.21335198     0.96803144    -0.12728028    -0.00024715    -0.00100806     0.00108575
H        -1.31628228    -0.91277711    -0.05534775     0.00012965     0.00054166     0.00000637
H         1.24662337     0.93944448    -0.07108060     0.00003235    -0.00042260     0.00018124
H         1.20815500    -0.97277605    -0.02294805    -0.00085323     0.00053262     0.00114169
