     6
  Step:     0            Position(A)                                  Velocity(au)
C        -0.69284969     0.00000000     0.00000000     0.00000000     0.00000000     0.00000000
C         0.66284969     0.00000000     0.00000000     0.00000000     0.00000000     0.00000000
H        -1.03381870     0.72280446    -0.32280653     0.00000000     0.00000000     0.00000000
H        -1.23381870    -0.72280446    -0.34280653     0.00000000     0.00000000     0.00000000
H         1.03381870     0.75280446    -0.32280653     0.00000000     0.00000000     0.00000000
H         1.03381870    -0.72280446    -0.31280653     0.00000000     0.00000000     0.00000000
     6
  Step:     1            Position(A)                                  Velocity(au)
C        -0.69277379    -0.00004563     0.00002514     0.00005530    -0.00003311     0.00001822
C         0.66275843     0.00000777     0.00003650    -0.00006650     0.00000559     0.00002651
H        -1.03436664     0.72385491    -0.32308422    -0.00039906     0.00076452    -0.00020147
H        -1.23405947    -0.72322212    -0.34283110    -0.00017558    -0.00030474    -0.00001770
H         1.03422804     0.75356760    -0.32299365     0.00029832     0.00055596    -0.00013599
H         1.03438106    -0.72374927    -0.31305155     0.00040970    -0.00068778    -0.00017785
     6
  Step:     2            Position(A)                                  Velocity(au)
C        -0.69254722    -0.00018111     0.00009968     0.00010978    -0.00006522     0.00003582
C         0.66248600     0.00003058     0.00014496    -0.00013202     0.00001082     0.00005228
H        -1.03600123     0.72698579    -0.32390841    -0.00079147     0.00151431    -0.00039656
H        -1.23477897    -0.72447117    -0.34290332    -0.00034910    -0.00060662    -0.00003431
H         1.03545029     0.75584513    -0.32355029     0.00059247     0.00110333    -0.00026856
H         1.03605944    -0.72656607    -0.31377925     0.00081312    -0.00136284    -0.00035040
     6
  Step:     3            Position(A)                                  Velocity(au)
C        -0.69217338    -0.00040231     0.00022106     0.00016263    -0.00009536     0.00005221
C         0.66203639     0.00006695     0.00032241    -0.00019563     0.00001535     0.00007662
H        -1.03869535     0.73213701    -0.32525308    -0.00117097     0.00223551    -0.00057930
H        -1.23596879    -0.72653987    -0.34301873    -0.00051856    -0.00090284    -0.00004877
H         1.03746842     0.75960196    -0.32446247     0.00087846     0.00163390    -0.00039446
H         1.03882820    -0.73120293    -0.31496797     0.00120431    -0.00201317    -0.00051265
     6
  Step:     4            Position(A)                                  Velocity(au)
C        -0.69165775    -0.00070263     0.00038521     0.00021314    -0.00012272     0.00006686
C         0.66141604     0.00011451     0.00056404    -0.00025648     0.00001888     0.00009893
H        -1.04240551     0.73921232    -0.32707671    -0.00153201     0.00291591    -0.00074450
H        -1.23761511    -0.72940902    -0.34317006    -0.00068204    -0.00119074    -0.00006011
H         1.04025477     0.76478129    -0.32570770     0.00115259     0.00214018    -0.00051078
H         1.04264608    -0.73757653    -0.31658304     0.00157793    -0.00262807    -0.00066020
     6
  Step:     5            Position(A)                                  Velocity(au)
C        -0.69100766    -0.00107347     0.00058673     0.00026069    -0.00014664     0.00007936
C         0.66063362     0.00017022     0.00086349    -0.00031383     0.00002121     0.00011869
H        -1.04707427     0.74808481    -0.32932491    -0.00187003     0.00354550    -0.00088801
H        -1.23969901    -0.73305231    -0.34334747    -0.00083773    -0.00146784    -0.00006743
H         1.04377218     0.77130709    -0.32725603     0.00141161     0.00261569    -0.00061503
H         1.04745824    -0.74557646    -0.31857875     0.00192947    -0.00319865    -0.00078946
     6
  Step:     6            Position(A)                                  Velocity(au)
C        -0.69023200    -0.00150465     0.00081924     0.00030475    -0.00016667     0.00008939
C         0.65969961     0.00023049     0.00121317    -0.00036707     0.00002217     0.00013550
H        -1.05263313     0.75860346    -0.33193346    -0.00218157     0.00411676    -0.00100686
H        -1.24219683    -0.73743699    -0.34353886    -0.00098399    -0.00173192    -0.00006999
H         1.04797522     0.77908709    -0.32907143     0.00165282     0.00305513    -0.00070527
H         1.05319881    -0.75507068    -0.32090075     0.00225543    -0.00371806    -0.00089773
     6
  Step:     7            Position(A)                                  Velocity(au)
C        -0.68934094    -0.00198503     0.00107563     0.00034492    -0.00018254     0.00009675
C         0.65862601     0.00029146     0.00160459    -0.00041573     0.00002169     0.00014912
H        -1.05900576     0.77060031    -0.33483164    -0.00246431     0.00462478    -0.00109923
H        -1.24508066    -0.74252456    -0.34373026    -0.00111935    -0.00198101    -0.00006717
H         1.05281183     0.78801628    -0.33111333     0.00187405     0.00345449    -0.00078014
H         1.05979368    -0.76591140    -0.32348862     0.00255328    -0.00418163    -0.00098326
     6
  Step:     8            Position(A)                                  Velocity(au)
C        -0.68834553    -0.00250298     0.00134840     0.00038094    -0.00019413     0.00010135
C         0.65742591     0.00034912     0.00202873    -0.00045946     0.00001975     0.00015939
H        -1.06611103     0.78389742    -0.33794540    -0.00271707     0.00506705    -0.00116442
H        -1.24831881    -0.74827158    -0.34390623    -0.00124254    -0.00221348    -0.00005853
H         1.05822483     0.79798049    -0.33333821     0.00207372     0.00381108    -0.00083885
H         1.06716330    -0.77794096    -0.32627845     0.00282155    -0.00458672    -0.00104521
     6
  Step:     9            Position(A)                                  Velocity(au)
C        -0.68725751    -0.00304679     0.00162994     0.00041259    -0.00020151     0.00010318
C         0.65611314     0.00039949     0.00247633    -0.00049805     0.00001638     0.00016629
H        -1.07386601     0.79831314    -0.34120012    -0.00293959     0.00544320    -0.00120263
H        -1.25187639    -0.75463059    -0.34405036    -0.00135247    -0.00242802    -0.00004379
H         1.06415348     0.80885992    -0.33570118     0.00225079     0.00412340    -0.00088115
H         1.07522540    -0.79099723    -0.32920509     0.00305966    -0.00493257    -0.00108346
     6
  Step:    10            Position(A)                                  Velocity(au)
C        -0.68608898    -0.00360508     0.00191271     0.00043978    -0.00020483     0.00010231
C         0.65470195     0.00043871     0.00293821    -0.00053140     0.00001163     0.00016989
H        -1.08218833     0.81366750    -0.34452286    -0.00313248     0.00575459    -0.00121477
H        -1.25571580    -0.76155099    -0.34414574    -0.00144826    -0.00262366    -0.00002288
H         1.07053489     0.82053232    -0.33815741     0.00240468     0.00439110    -0.00090729
H         1.08389726    -0.80491831    -0.33220413     0.00326780    -0.00521994    -0.00109855
     6
  Step:    11            Position(A)                                  Velocity(au)
C        -0.68485224    -0.00416702     0.00218948     0.00046246    -0.00020430     0.00009886
C         0.65320678     0.00046311     0.00340548    -0.00055947     0.00000557     0.00017032
H        -1.09099824     0.82978630    -0.34784399    -0.00329696     0.00600389    -0.00120225
H        -1.25979723    -0.76897998    -0.34417549    -0.00152914    -0.00279976     0.00000411
H         1.07730521     0.83287585    -0.34066337     0.00253522     0.00461475    -0.00091796
H         1.09309776    -0.81954629    -0.33521330     0.00344686    -0.00545083    -0.00109144
     6
  Step:    12            Position(A)                                  Velocity(au)
C        -0.68355966    -0.00472245     0.00245341     0.00048062    -0.00020019     0.00009300
C         0.65164206     0.00046919     0.00386970    -0.00058229    -0.00000175     0.00016777
H        -1.10022013     0.84650416    -0.35109822    -0.00343475     0.00619466    -0.00116670
H        -1.26407902    -0.77686352    -0.34412324    -0.00159451    -0.00295604     0.00003689
H         1.08440057     0.84577147    -0.34317795     0.00264250     0.00479572    -0.00091420
H         1.10274893    -0.83473013    -0.33817346     0.00359822    -0.00562808    -0.00106337
     6
  Step:    13            Position(A)                                  Velocity(au)
C        -0.68222359    -0.00526189     0.00269814     0.00049425    -0.00019271     0.00008492
C         0.65002210     0.00045355     0.00432304    -0.00059989    -0.00001031     0.00016247
H        -1.10978364     0.86366633    -0.35422494    -0.00354791     0.00633096    -0.00110981
H        -1.26851795    -0.78514724    -0.34397371    -0.00164377    -0.00309254     0.00007495
H         1.09175765     0.85910475    -0.34566333     0.00272678     0.00493595    -0.00089736
H         1.11277722    -0.85032756    -0.34102913     0.00372364    -0.00575512    -0.00101567
     6
  Step:    14            Position(A)                                  Velocity(au)
C        -0.68085648    -0.00577645     0.00291785     0.00050329    -0.00018205     0.00007480
C         0.64836115     0.00041280     0.00475828    -0.00061226    -0.00002016     0.00015465
H        -1.11962445     0.88112961    -0.35716802    -0.00363874     0.00641697    -0.00103304
H        -1.27306916    -0.79377732    -0.34371331    -0.00167625    -0.00320965     0.00011753
H         1.09931397     0.87276730    -0.34808582     0.00278830     0.00503782    -0.00086909
H         1.12311436    -0.86620618    -0.34372839     0.00382521    -0.00583560    -0.00094953
     6
  Step:    15            Position(A)                                  Velocity(au)
C        -0.67947101    -0.00625755     0.00310721     0.00050753    -0.00016821     0.00006280
C         0.64667353     0.00034328     0.00516887    -0.00061927    -0.00003147     0.00014456
H        -1.12968476     0.89876221    -0.35987486    -0.00370972     0.00645667    -0.00093729
H        -1.27768577    -0.80270155    -0.34333091    -0.00169098    -0.00330818     0.00016352
H         1.10700749     0.88665776    -0.35041659     0.00282699     0.00510400    -0.00083136
H         1.13369816    -0.88224378    -0.34622231     0.00390527    -0.00587316    -0.00086576
     6
  Step:    16            Position(A)                                  Velocity(au)
C        -0.67808068    -0.00669640     0.00326132     0.00050643    -0.00015089     0.00004906
C         0.64497420     0.00024068     0.00554889    -0.00062047    -0.00004464     0.00013237
H        -1.13991378     0.91644259    -0.36229427    -0.00376350     0.00645322    -0.00082225
H        -1.28231749    -0.81187050    -0.34281897    -0.00168602    -0.00338952     0.00021125
H         1.11477542     0.90068227    -0.35263270     0.00284199     0.00513729    -0.00078663
H         1.14447318    -0.89832784    -0.34846342     0.00396649    -0.00587103    -0.00076426
     6
  Step:    17            Position(A)                                  Velocity(au)
C        -0.67670123    -0.00708281     0.00337551     0.00049833    -0.00012900     0.00003353
C         0.64328002     0.00009913     0.00589284    -0.00061436    -0.00006071     0.00011817
H        -1.15026820     0.93405634    -0.36437196    -0.00380297     0.00640757    -0.00068438
H        -1.28690699    -0.82123959    -0.34217555    -0.00165657    -0.00345636     0.00025769
H         1.12255099     0.91475478    -0.35471882     0.00282996     0.00514050    -0.00073854
H         1.15539182    -0.91435377    -0.35040224     0.00401220    -0.00583112    -0.00064247
     6
  Step:    18            Position(A)                                  Velocity(au)
C        -0.67535522    -0.00740191     0.00344470     0.00047425    -0.00009673     0.00001521
C         0.64161414    -0.00009138     0.00619520    -0.00059262    -0.00008436     0.00010128
H        -1.16071307     0.95148704    -0.36603729    -0.00383128     0.00630751    -0.00050123
H        -1.29137767    -0.83077411    -0.34140958    -0.00157924    -0.00351830     0.00029342
H         1.13025311     0.92879685    -0.35667194     0.00277245     0.00511609    -0.00069680
H         1.16641682    -0.93021955    -0.35197721     0.00404869    -0.00574741    -0.00048344
     6
  Step:    19            Position(A)                                  Velocity(au)
C        -0.67410747    -0.00761183     0.00345867     0.00045055    -0.00007192    -0.00000320
C         0.64003882    -0.00036228     0.00644676    -0.00057158    -0.00010023     0.00008383
H        -1.17122234     0.96855354    -0.36711329    -0.00381841     0.00619410    -0.00034096
H        -1.29554423    -0.84048199    -0.34057076    -0.00150854    -0.00355455     0.00035343
H         1.13771414     0.94273587    -0.35852977     0.00272193     0.00506353    -0.00062870
H         1.17753502    -0.94578768    -0.35304628     0.00404717    -0.00565173    -0.00034460
     6
  Step:    20            Position(A)                                  Velocity(au)
C        -0.67289105    -0.00779527     0.00342720     0.00008860    -0.00001250    -0.00000405
C         0.63848807    -0.00063955     0.00665371    -0.00011351    -0.00002076     0.00001356
H        -1.18159685     0.98536398    -0.36790210    -0.00076067     0.00123017    -0.00004697
H        -1.29962823    -0.85021473    -0.33947662    -0.00029768    -0.00071820     0.00009017
H         1.14513994     0.95649043    -0.36011043     0.00054608     0.00100712    -0.00010641
H         1.18855172    -0.96113012    -0.35386193     0.00080911    -0.00112282    -0.00005012
     6
  Step:    21            Position(A)                                  Velocity(au)
C        -0.67266584    -0.00781518     0.00339273     0.00007596    -0.00000202    -0.00002120
C         0.63819185    -0.00070006     0.00666745    -0.00010294    -0.00002352    -0.00000358
H        -1.18360010     0.98857104    -0.36787755    -0.00070364     0.00111341     0.00006538
H        -1.30038811    -0.85216858    -0.33910352    -0.00025717    -0.00070920     0.00018278
H         1.14659993     0.95912376    -0.36026127     0.00052065     0.00091688    -0.00000366
H         1.19070086    -0.96405828    -0.35386180     0.00076167    -0.00101678     0.00005077
     6
  Step:    22            Position(A)                                  Velocity(au)
C        -0.67247561    -0.00780634     0.00331127     0.00006302     0.00000852    -0.00003841
C         0.63792505    -0.00076816     0.00663411    -0.00009201    -0.00002629    -0.00002085
H        -1.18544522     0.99145350    -0.36754452    -0.00064511     0.00099303     0.00017850
H        -1.30103474    -0.85409352    -0.33847696    -0.00021496    -0.00069716     0.00027551
H         1.14798751     0.96150509    -0.36013043     0.00049323     0.00082303     0.00009955
H         1.19271749    -0.96669113    -0.35358425     0.00071227    -0.00090708     0.00015265
     6
  Step:    23            Position(A)                                  Velocity(au)
C        -0.67232116    -0.00776860     0.00318264     0.00004981     0.00001909    -0.00005567
C         0.63768863    -0.00084386     0.00655341    -0.00008074    -0.00002908    -0.00003821
H        -1.18712834     0.99400212    -0.36690128    -0.00058526     0.00086949     0.00029212
H        -1.30156377    -0.85598152    -0.33759668    -0.00017126    -0.00068230     0.00036831
H         1.14929753     0.96362508    -0.35971681     0.00046405     0.00072598     0.00020309
H         1.19459644    -0.96901932    -0.35302694     0.00066108    -0.00079420     0.00025525
     6
  Step:    24            Position(A)                                  Velocity(au)
C        -0.67220318    -0.00770193     0.00300677     0.00003637     0.00002967    -0.00007295
C         0.63748345    -0.00092717     0.00642512    -0.00006919    -0.00003185    -0.00005564
H        -1.18864616     0.99620894    -0.36594686    -0.00052431     0.00074327     0.00040596
H        -1.30197141    -0.85782518    -0.33646261    -0.00012628    -0.00066485     0.00046107
H         1.15052548     0.96547565    -0.35901966     0.00043332     0.00062619     0.00030684
H         1.19633308    -0.97103477    -0.35218822     0.00060829    -0.00067858     0.00035834
     6
  Step:    25            Position(A)                                  Velocity(au)
C        -0.67212224    -0.00760633     0.00278368     0.00002275     0.00004023    -0.00009020
C         0.63731024    -0.00101808     0.00624912    -0.00005738    -0.00003462    -0.00007309
H        -1.18999591     0.99806725    -0.36468102    -0.00046246     0.00061484     0.00051977
H        -1.30225445    -0.85961771    -0.33507498    -0.00008024    -0.00064502     0.00055370
H         1.15166747     0.96704986    -0.35803863     0.00040129     0.00052409     0.00041064
H         1.19792332    -0.97273064    -0.35106708     0.00055411    -0.00056069     0.00046169
     6
  Step:    26            Position(A)                                  Velocity(au)
C        -0.67207877    -0.00748191     0.00251343     0.00000899     0.00005074    -0.00010742
C         0.63716961    -0.00111653     0.00602538    -0.00004538    -0.00003737    -0.00009054
H        -1.19117543     0.99957163    -0.36310413    -0.00039991     0.00048464     0.00063332
H        -1.30241025    -0.86135296    -0.33343428    -0.00003334    -0.00062307     0.00064609
H         1.15272024     0.96834200    -0.35677376     0.00036817     0.00042010     0.00051435
H         1.19936364    -0.97410133    -0.34966312     0.00049875    -0.00044097     0.00056509
     6
  Step:    27            Position(A)                                  Velocity(au)
C        -0.67207307    -0.00732882     0.00219619    -0.00000486     0.00006119    -0.00012455
C         0.63706203    -0.00122248     0.00575394    -0.00003324    -0.00004010    -0.00010796
H        -1.19218313     1.00071784    -0.36121725    -0.00033690     0.00035311     0.00074638
H        -1.30243677    -0.86302543    -0.33154134     0.00001421    -0.00059923     0.00073813
H         1.15368109     0.96934749    -0.35522555     0.00033419     0.00031466     0.00061779
H         1.20065108    -0.97514242    -0.34797650     0.00044241    -0.00031986     0.00066831
     6
  Step:    28            Position(A)                                  Velocity(au)
C        -0.67210532    -0.00714726     0.00183222    -0.00001873     0.00007155    -0.00014159
C         0.63698783    -0.00133584     0.00543494    -0.00002100    -0.00004279    -0.00012531
H        -1.19301799     1.00150288    -0.35902201    -0.00027362     0.00022071     0.00085873
H        -1.30233255    -0.86463027    -0.32939729     0.00006217    -0.00057373     0.00082968
H         1.15454798     0.97006294    -0.35339491     0.00029955     0.00020819     0.00072082
H         1.20178327    -0.97585071    -0.34600797     0.00038532    -0.00019778     0.00077117
     6
  Step:    29            Position(A)                                  Velocity(au)
C        -0.67217554    -0.00693751     0.00142181    -0.00003260     0.00008180    -0.00015849
C         0.63694720    -0.00145653     0.00506859    -0.00000871    -0.00004546    -0.00014257
H        -1.19367962     1.00192494    -0.35652067    -0.00021031     0.00008786     0.00097015
H        -1.30209672    -0.86616329    -0.32700361     0.00011035    -0.00054682     0.00092064
H         1.15531943     0.97048610    -0.35128321     0.00026449     0.00010111     0.00082327
H         1.20275845    -0.97622414    -0.34375881     0.00032768    -0.00007517     0.00087346
     6
  Step:    30            Position(A)                                  Velocity(au)
C        -0.67228359    -0.00669990     0.00096538    -0.00004639     0.00009192    -0.00017524
C         0.63694018    -0.00158445     0.00465518     0.00000356    -0.00004808    -0.00015971
H        -1.19416822     1.00198342    -0.35371605    -0.00014718    -0.00004498     0.00108043
H        -1.30172899    -0.86762097    -0.32436210     0.00015853    -0.00051875     0.00101088
H         1.15599455     0.97061591    -0.34889224     0.00022922    -0.00000616     0.00092499
H         1.20357543    -0.97626184    -0.34123084     0.00026972     0.00004754     0.00097498
     6
  Step:    31            Position(A)                                  Velocity(au)
C        -0.67242923    -0.00643479     0.00046339    -0.00006005     0.00010189    -0.00019180
C         0.63696668    -0.00171951     0.00419509     0.00001577    -0.00005067    -0.00017670
H        -1.19448459     1.00167894    -0.35061156    -0.00008446    -0.00017736     0.00118935
H        -1.30122967    -0.86900046    -0.32147487     0.00020649    -0.00048975     0.00110029
H         1.15657307     0.97045242    -0.34622423     0.00019395    -0.00011319     0.00102582
H         1.20423363    -0.97596412    -0.33842642     0.00021166     0.00016993     0.00107555
     6
  Step:    32            Position(A)                                  Velocity(au)
C        -0.67261203    -0.00614264    -0.00008360    -0.00007354     0.00011169    -0.00020814
C         0.63702645    -0.00186157     0.00368878     0.00002786    -0.00005320    -0.00019350
H        -1.19463018     1.00101338    -0.34721120    -0.00002239    -0.00030883     0.00129671
H        -1.30059963    -0.87029954    -0.31834437     0.00025403    -0.00046007     0.00118875
H         1.15705531     0.96999687    -0.34328182     0.00015891    -0.00021955     0.00112560
H         1.20473308    -0.97533247    -0.33534842     0.00015373     0.00029155     0.00117496
     6
  Step:    33            Position(A)                                  Velocity(au)
C        -0.67283144    -0.00582394    -0.00067498    -0.00008680     0.00012129    -0.00022424
C         0.63711908    -0.00201049     0.00313678     0.00003979    -0.00005569    -0.00021010
H        -1.19460703     0.99998987    -0.34351955     0.00003882    -0.00043892     0.00140229
H        -1.29984031    -0.87151669    -0.31497333     0.00030094    -0.00042995     0.00127616
H         1.15744219     0.96925165    -0.34006806     0.00012432    -0.00032483     0.00122420
H         1.20507441    -0.97436958    -0.33200028     0.00009614     0.00041196     0.00127303
     6
  Step:    34            Position(A)                                  Velocity(au)
C        -0.67308675    -0.00547927    -0.00131005    -0.00009977     0.00013067    -0.00024008
C         0.63724404    -0.00216613     0.00253971     0.00005148    -0.00005811    -0.00022646
H        -1.19441788     0.99861283    -0.33954176     0.00009891    -0.00056714     0.00150586
H        -1.29895374    -0.87265102    -0.31136477     0.00034700    -0.00039962     0.00136241
H         1.15773526     0.96822033    -0.33658640     0.00009041    -0.00042858     0.00132146
H         1.20525888    -0.97307937    -0.32838594     0.00003912     0.00053071     0.00136955
     6
  Step:    35            Position(A)                                  Velocity(au)
C        -0.67337713    -0.00510927    -0.00198803    -0.00011242     0.00013980    -0.00025562
C         0.63740065    -0.00232832     0.00189824     0.00006291    -0.00006047    -0.00024255
H        -1.19406608     0.99688804    -0.33528364     0.00015765    -0.00069299     0.00160721
H        -1.29794250    -0.87370231    -0.30752198     0.00039201    -0.00036933     0.00144744
H         1.15793669     0.96690764    -0.33284067     0.00005741    -0.00053039     0.00141727
H         1.20528838    -0.97146699    -0.32450991    -0.00001709     0.00064734     0.00146431
     6
  Step:    36            Position(A)                                  Velocity(au)
C        -0.67370159    -0.00471466    -0.00270810    -0.00012468     0.00014865    -0.00027084
C         0.63758809    -0.00249684     0.00121316     0.00007400    -0.00006274    -0.00025835
H        -1.19355568     0.99482269    -0.33075158     0.00021479    -0.00081596     0.00170608
H        -1.29680974    -0.87467095    -0.30344842     0.00043578    -0.00033929     0.00153115
H         1.15804926     0.96531951    -0.32883501     0.00002556    -0.00062981     0.00151151
H         1.20516541    -0.96953892    -0.32037728    -0.00007227     0.00076137     0.00155711
     6
  Step:    37            Position(A)                                  Velocity(au)
C        -0.67405902    -0.00429626    -0.00346933    -0.00015610     0.00018011    -0.00028807
C         0.63780539    -0.00267148     0.00048529     0.00010359    -0.00008457    -0.00027595
H        -1.19289135     0.99242537    -0.32595269     0.00022679    -0.00098447     0.00189461
H        -1.29555913    -0.87555798    -0.29914775     0.00054835    -0.00033129     0.00155271
H         1.15807645     0.96346307    -0.32457386    -0.00006864    -0.00072559     0.00154580
H         1.20489310    -0.96730290    -0.31599373    -0.00008084     0.00090291     0.00172787
     6
  Step:    38            Position(A)                                  Velocity(au)
C        -0.67455534    -0.00372958    -0.00428363    -0.00019283     0.00022219    -0.00030594
C         0.63815467    -0.00295940    -0.00029610     0.00013875    -0.00011612    -0.00029418
H        -1.19231529     0.98943837    -0.32038951     0.00020572    -0.00116895     0.00212484
H        -1.29381066    -0.87648283    -0.29495630     0.00068740    -0.00033296     0.00154140
H         1.15767384     0.96135107    -0.32038066    -0.00018896    -0.00081724     0.00154816
H         1.20472329    -0.96460070    -0.31092715    -0.00005968     0.00105518     0.00193670
     6
  Step:    39            Position(A)                                  Velocity(au)
C        -0.67511367    -0.00308104    -0.00514258    -0.00021148     0.00024810    -0.00032172
C         0.63856423    -0.00330656    -0.00112367     0.00015699    -0.00013455    -0.00031059
H        -1.19176620     0.98603212    -0.31433146     0.00019970    -0.00131129     0.00228972
H        -1.29179958    -0.87737900    -0.29071748     0.00076970    -0.00031886     0.00156778
H         1.15704299     0.95899340    -0.31610659    -0.00025991    -0.00090532     0.00158606
H         1.20456670    -0.96153189    -0.30540146    -0.00006016     0.00118240     0.00209117
     6
  Step:    40            Position(A)                                  Velocity(au)
C        -0.67571196    -0.00237268    -0.00604322    -0.00010853     0.00012964    -0.00016311
C         0.63901326    -0.00369527    -0.00199480     0.00008208    -0.00007162    -0.00015806
H        -1.19122308     0.98226663    -0.30786649     0.00009674    -0.00069552     0.00117693
H        -1.28960102    -0.87822674    -0.28638174     0.00040228    -0.00014505     0.00077934
H         1.15625236     0.95639965    -0.31170613    -0.00015044    -0.00047956     0.00079313
H         1.20439425    -0.95813390    -0.29949007    -0.00003333     0.00062883     0.00107767
     6
  Step:    41            Position(A)                                  Velocity(au)
C        -0.67602297    -0.00199492    -0.00650914    -0.00011818     0.00014569    -0.00017749
C         0.63925188    -0.00390663    -0.00244792     0.00009170    -0.00008220    -0.00017319
H        -1.19095566     0.98020491    -0.30447091     0.00009957    -0.00080919     0.00130266
H        -1.28842922    -0.87859425    -0.28418804     0.00045161    -0.00012318     0.00082698
H         1.15578258     0.95497552    -0.30946165    -0.00018992    -0.00056092     0.00085004
H         1.20428746    -0.95626342    -0.29637253    -0.00004569     0.00073682     0.00119911
     6
  Step:    42            Position(A)                                  Velocity(au)
C        -0.67635832    -0.00157589    -0.00701397    -0.00012642     0.00015986    -0.00019157
C         0.63951479    -0.00414486    -0.00294202     0.00009992    -0.00009131    -0.00018803
H        -1.19067852     0.97784099    -0.30074192     0.00010370    -0.00091648     0.00142097
H        -1.28713105    -0.87890043    -0.28185880     0.00049488    -0.00010035     0.00087830
H         1.15521365     0.95333185    -0.30705704    -0.00022304    -0.00063997     0.00091005
H         1.20414434    -0.95410404    -0.29293187    -0.00005969     0.00083995     0.00131412
     6
  Step:    43            Position(A)                                  Velocity(au)
C        -0.67671439    -0.00112058    -0.00755690    -0.00013341     0.00017227    -0.00020535
C         0.63979834    -0.00440605    -0.00347632     0.00010686    -0.00009904    -0.00020258
H        -1.19038852     0.97519249    -0.29669929     0.00010880    -0.00101724     0.00153225
H        -1.28572262    -0.87914311    -0.27938442     0.00053244    -0.00007691     0.00093294
H         1.15456272     0.95147538    -0.30448435    -0.00025000    -0.00071639     0.00097278
H         1.20396098    -0.95166956    -0.28918531    -0.00007489     0.00093785     0.00142297
     6
  Step:    44            Position(A)                                  Velocity(au)
C        -0.67708798    -0.00063368    -0.00813708    -0.00013930     0.00018302    -0.00021882
C         0.64009925    -0.00468652    -0.00404998     0.00011267    -0.00010546    -0.00021682
H        -1.19008349     0.97227748    -0.29236172     0.00011448    -0.00111129     0.00163686
H        -1.28421901    -0.87932105    -0.27675634     0.00056467    -0.00005317     0.00099052
H         1.15384635     0.94941374    -0.30173667    -0.00027101    -0.00078986     0.00103784
H         1.20373473    -0.94897472    -0.28514933    -0.00009082     0.00103017     0.00152592
     6