6
terachem gradient in au, energy -78.4917059660, grad_rms 0.021041, grad_max 0.029905 on atom 1
 C      -0.0189312427      -0.0206322880     -0.0104978725
 C       0.0260961267      -0.0101831087      0.0006338901
 H       0.0019227491       0.0115084488      0.0048588746
 H       0.0131427336       0.0147271328      0.0021706695
 H      -0.0152388736      -0.0056715753      0.0019314030
 H      -0.0069914928       0.0102513918      0.0009030351
