     6
  Step:     0            Position(A)                                  Velocity(au)
C        -0.69284969     0.00000000     0.00000000     0.00000000     0.00000000     0.00000000
C         0.66284969     0.00000000     0.00000000     0.00000000     0.00000000     0.00000000
H        -1.03381870     0.72280446    -0.32280653     0.00000000     0.00000000     0.00000000
H        -1.23381870    -0.72280446    -0.34280653     0.00000000     0.00000000     0.00000000
H         1.03381870     0.75280446    -0.32280653     0.00000000     0.00000000     0.00000000
H         1.03381870    -0.72280446    -0.31280653     0.00000000     0.00000000     0.00000000
     6
  Step:     1            Position(A)                                  Velocity(au)
C        -0.69286088    -0.00005853     0.00004857    -0.00000835    -0.00004257     0.00003537
C         0.66284506     0.00002114     0.00005457    -0.00000318     0.00001539     0.00003973
H        -1.03420309     0.72387541    -0.32325015    -0.00027939     0.00077954    -0.00032292
H        -1.23401228    -0.72321454    -0.34292576    -0.00014122    -0.00029922    -0.00008691
H         1.03416993     0.75356038    -0.32307237     0.00025599     0.00055074    -0.00019355
H         1.03423393    -0.72377577    -0.31320675     0.00030206    -0.00070720    -0.00029146
     6
  Step:     2            Position(A)                                  Velocity(au)
C        -0.69289538    -0.00023280     0.00019342    -0.00001738    -0.00008419     0.00007013
C         0.66283230     0.00008416     0.00021729    -0.00000554     0.00003047     0.00007876
H        -1.03534675     0.72706792    -0.32457266    -0.00055195     0.00154443    -0.00063984
H        -1.23459104    -0.72444097    -0.34328185    -0.00028100    -0.00059567    -0.00017264
H         1.03521874     0.75581660    -0.32386513     0.00050845     0.00109314    -0.00038365
H         1.03547072    -0.72667228    -0.31440059     0.00059768    -0.00140183    -0.00057800
     6
  Step:     3            Position(A)                                  Velocity(au)
C        -0.69295596    -0.00051898     0.00043210    -0.00002773    -0.00012399     0.00010371
C         0.66281475     0.00018781     0.00048531    -0.00000631     0.00004499     0.00011642
H        -1.03722182     0.73232225    -0.32674955    -0.00081127     0.00228091    -0.00094511
H        -1.23554912    -0.72647239    -0.34386996    -0.00041795    -0.00088662    -0.00025604
H         1.03695074     0.75953899    -0.32517066     0.00075402     0.00161918    -0.00056698
H         1.03750279    -0.73144268    -0.31636798     0.00088081    -0.00207202    -0.00085499
     6
  Step:     4            Position(A)                                  Velocity(au)
C        -0.69304704    -0.00091096     0.00076065    -0.00003994    -0.00016124     0.00013561
C         0.66279779     0.00033021     0.00085403    -0.00000480     0.00005871     0.00015212
H        -1.03978378     0.73954275    -0.32974170    -0.00105176     0.00297684    -0.00123384
H        -1.23687692    -0.72929012    -0.34468218    -0.00055077    -0.00116948    -0.00033600
H         1.03934267     0.76467225    -0.32696608     0.00098968     0.00212155    -0.00074052
H         1.04028805    -0.73800462    -0.31907675     0.00114605    -0.00270720    -0.00111833
     6
  Step:     5            Position(A)                                  Velocity(au)
C        -0.69317442    -0.00140082     0.00117381    -0.00005447    -0.00019534     0.00016541
C         0.66278849     0.00050892     0.00131730    -0.00000046     0.00007150     0.00018536
H        -1.04297415     0.74860327    -0.33349768    -0.00126891     0.00362227    -0.00150204
H        -1.23856141    -0.73286855    -0.34570765    -0.00067825    -0.00144179    -0.00041151
H         1.04236350     0.77114221    -0.32922072     0.00121280     0.00259385    -0.00090163
H         1.04377078    -0.74624899    -0.32248440     0.00138894    -0.00329857    -0.00136465
     6
  Step:     6            Position(A)                                  Velocity(au)
C        -0.69334496    -0.00197934     0.00166533    -0.00007164    -0.00022593     0.00019279
C         0.66279528     0.00072125     0.00186779     0.00000713     0.00008328     0.00021574
H        -1.04672375     0.75935379    -0.33795671    -0.00145943     0.00420977    -0.00174686
H        -1.24058641    -0.73717562    -0.34693282    -0.00079932    -0.00170132    -0.00048162
H         1.04597573     0.77885863    -0.33189729     0.00142130     0.00303082    -0.00104814
H         1.04788446    -0.75604527    -0.32654033     0.00160608    -0.00383937    -0.00159141
     6
  Step:     7            Position(A)                                  Velocity(au)
C        -0.69356621    -0.00263650     0.00222821    -0.00009162    -0.00025282     0.00021752
C         0.66282750     0.00096439     0.00249722     0.00001824     0.00009406     0.00024298
H        -1.05095609     0.77162746    -0.34305165    -0.00162127     0.00473447    -0.00196652
H        -1.24293310    -0.74217346    -0.34834172    -0.00091312    -0.00194605    -0.00054550
H         1.05013692     0.78771847    -0.33495325     0.00161367     0.00342839    -0.00117841
H         1.05255479    -0.76724738    -0.33118817     0.00179518    -0.00432496    -0.00179694
     6
  Step:     8            Position(A)                                  Velocity(au)
C        -0.69384607    -0.00336209     0.00285498    -0.00011449    -0.00027602     0.00023948
C         0.66289502     0.00123569     0.00319671     0.00003296     0.00010393     0.00026693
H        -1.05559082     0.78524768    -0.34871205    -0.00175355     0.00519396    -0.00216030
H        -1.24558047    -0.74781904    -0.34991628    -0.00101893    -0.00217425    -0.00060245
H         1.05480127     0.79760930    -0.33834227     0.00178896     0.00378374    -0.00129130
H         1.05770273    -0.77969949    -0.33636820     0.00195503    -0.00475278    -0.00198041
     6
  Step:     9            Position(A)                                  Velocity(au)
C        -0.69419240    -0.00414612     0.00353800    -0.00014019    -0.00029568     0.00025865
C         0.66300779     0.00153279     0.00395711     0.00005128     0.00011302     0.00028752
H        -1.06054668     0.80003440    -0.35486684    -0.00185643     0.00558797    -0.00232840
H        -1.24850585    -0.75406496    -0.35163666    -0.00111625    -0.00238446    -0.00065190
H         1.05992116     0.80841262    -0.34201563     0.00194677     0.00409521    -0.00138617
H         1.06324727    -0.79324142    -0.34201950     0.00208533    -0.00512209    -0.00214174
     6
  Step:    10            Position(A)                                  Velocity(au)
C        -0.69461277    -0.00497923     0.00426962    -0.00016854    -0.00031209     0.00027506
C         0.66317548     0.00185380     0.00476920     0.00007303     0.00012151     0.00030478
H        -1.06574406     0.81580958    -0.36144659    -0.00193084     0.00591803    -0.00247173
H        -1.25168550    -0.76086019    -0.35348167    -0.00120479    -0.00257549    -0.00069341
H         1.06544857     0.82000691    -0.34592353     0.00208716     0.00436219    -0.00146284
H         1.06910787    -0.80771336    -0.34808187     0.00218662    -0.00543373    -0.00228146
     6
  Step:    11            Position(A)                                  Velocity(au)
C        -0.69511420    -0.00585300     0.00504238    -0.00019932    -0.00032562     0.00028881
C         0.66340720     0.00219733     0.00562400     0.00009795     0.00012960     0.00031882
H        -1.07110690     0.83240145    -0.36838529    -0.00197836     0.00618701    -0.00259177
H        -1.25509510    -0.76815091    -0.35542906    -0.00128443    -0.00274645    -0.00072667
H         1.07133631     0.83227045    -0.35001625     0.00221063     0.00458504    -0.00152154
H         1.07520639    -0.82295973    -0.35449733     0.00226005    -0.00568978    -0.00240059
     6
  Step:    12            Position(A)                                  Velocity(au)
C        -0.69570289    -0.00676014     0.00584919    -0.00023219    -0.00033672     0.00030004
C         0.66371120     0.00256262     0.00651289     0.00012570     0.00013752     0.00032980
H        -1.07656417     0.84964773    -0.37562156    -0.00200097     0.00639877    -0.00269036
H        -1.25871033    -0.77588117    -0.35745598    -0.00135526    -0.00289672    -0.00075153
H         1.07753903     0.84508354    -0.35424518     0.00231801     0.00476483    -0.00156281
H         1.08146859    -0.83883206    -0.36121123     0.00230724    -0.00589323    -0.00250049
     6
  Step:    13            Position(A)                                  Velocity(au)
C        -0.69638412    -0.00769460     0.00668337    -0.00026680    -0.00034584     0.00030892
C         0.66409467     0.00294948     0.00742773     0.00015585     0.00014549     0.00033792
H        -1.08205068     0.86739779    -0.38309949    -0.00200091     0.00655781    -0.00276958
H        -1.26250735    -0.78399372    -0.35953932    -0.00141755    -0.00302591    -0.00076794
H         1.08401405     0.85833041    -0.35856361     0.00241037     0.00490327    -0.00158747
H         1.08782520    -0.85519114    -0.36817305     0.00233013    -0.00604771    -0.00258274
     6
  Step:    14            Position(A)                                  Velocity(au)
C        -0.69716207    -0.00865164     0.00753873    -0.00030272    -0.00035346     0.00031563
C         0.66456360     0.00335832     0.00836103     0.00018795     0.00015370     0.00034341
H        -1.08750763     0.88551390    -0.39076903    -0.00198055     0.00666896    -0.00283158
H        -1.26646322    -0.79243058    -0.36165605    -0.00147168    -0.00313389    -0.00077603
H         1.09072191     0.87190063    -0.36292742     0.00248895     0.00500248    -0.00159656
H         1.09421258    -0.87190835    -0.37533680     0.00233083    -0.00615721    -0.00264903
     6
  Step:    15            Position(A)                                  Velocity(au)
C        -0.69803976    -0.00962777     0.00840962    -0.00033951    -0.00036003     0.00032038
C         0.66512264     0.00379012     0.00930592     0.00022150     0.00016236     0.00034652
H        -1.09288279     0.90387186    -0.39858606    -0.00194228     0.00673718    -0.00287851
H        -1.27055632    -0.80113368    -0.36378359    -0.00151821    -0.00322071    -0.00077600
H         1.09762671     0.88569013    -0.36729554     0.00255510     0.00506492    -0.00159125
H         1.10057306    -0.88886633    -0.38266119     0.00231158    -0.00622590    -0.00270107
     6
  Step:    16            Position(A)                                  Velocity(au)
C        -0.69901891    -0.01062074     0.00929096    -0.00037669    -0.00036598     0.00032337
C         0.66577503     0.00424631     0.01025622     0.00025596     0.00017162     0.00034749
H        -1.09813043     0.92236106    -0.40651225    -0.00188845     0.00676737    -0.00291242
H        -1.27476664    -0.81004538    -0.36590016    -0.00155775    -0.00328661    -0.00076820
H         1.10469632     0.89960185    -0.37163033     0.00261017     0.00509323    -0.00157285
H         1.10685512    -0.90595921    -0.39010958     0.00227459    -0.00625795    -0.00274052
     6
  Step:    17            Position(A)                                  Velocity(au)
C        -0.70009993    -0.01162942     0.01017820    -0.00041376    -0.00037171     0.00032479
C         0.66652254     0.00472875     0.01120642     0.00029080     0.00018163     0.00034657
H        -1.10321117     0.94088414    -0.41451475    -0.00182134     0.00676428    -0.00293524
H        -1.27907601    -0.81910892    -0.36798507    -0.00159102    -0.00333199    -0.00075310
H         1.11190235     0.91354615    -0.37589781     0.00265553     0.00509012    -0.00154273
H         1.11301333    -0.92309246    -0.39764974     0.00222208    -0.00625742    -0.00276893
     6
  Step:    18            Position(A)                                  Velocity(au)
C        -0.70128187    -0.01265369     0.01106731    -0.00045023    -0.00037755     0.00032484
C         0.66736547     0.00523967     0.01215169     0.00032546     0.00019248     0.00034400
H        -1.10809174     0.95935646    -0.42256573    -0.00174313     0.00673244    -0.00294871
H        -1.28346830    -0.82826878    -0.37001905    -0.00161877    -0.00335735    -0.00073127
H         1.11922005     0.92744089    -0.38006789     0.00269246     0.00505835    -0.00150234
H         1.11900820    -0.94018247    -0.40525350     0.00215620    -0.00622821    -0.00278771
     6
  Step:    19            Position(A)                                  Velocity(au)
C        -0.70256235    -0.01369432     0.01195483    -0.00048557    -0.00038381     0.00032371
C         0.66830257     0.00578150     0.01308785     0.00035940     0.00020426     0.00034002
H        -1.11274472     0.97770542    -0.43064190    -0.00165592     0.00667611    -0.00295439
H        -1.28792946    -0.83747101    -0.37198457    -0.00164177    -0.00336331    -0.00070341
H         1.12662801     0.94121144    -0.38411445     0.00272210     0.00500063    -0.00145314
H         1.12480605    -0.95715595    -0.41289633     0.00207902    -0.00617396    -0.00279808
     6
  Step:    20            Position(A)                                  Velocity(au)
C        -0.70393755    -0.01475282     0.01283776    -0.00010167    -0.00007651     0.00006297
C         0.66933110     0.00635683     0.01401132     0.00007677     0.00004249     0.00006556
H        -1.11714833     0.99586966    -0.43872396    -0.00030581     0.00129219    -0.00057834
H        -1.29244750    -0.84666351    -0.37386617    -0.00032518    -0.00065608    -0.00013126
H         1.13410785     0.95479045    -0.38801543     0.00053759     0.00096329    -0.00027347
H         1.13037882    -0.97394926    -0.42055686     0.00039017    -0.00119405    -0.00054848
     6
  Step:    21            Position(A)                                  Velocity(au)
C        -0.70426034    -0.01497200     0.01300640    -0.00013419    -0.00008387     0.00006029
C         0.66958465     0.00649108     0.01418275     0.00010848     0.00005577     0.00005973
H        -1.11785179     0.99928550    -0.44030045    -0.00020826     0.00120445    -0.00057412
H        -1.29336017    -0.84842775    -0.37417660    -0.00034196    -0.00063255    -0.00009540
H         1.13560595     0.95729875    -0.38868155     0.00055753     0.00086928    -0.00021320
H         1.13132196    -0.97709708    -0.42205618     0.00029897    -0.00110642    -0.00054744
     6
  Step:    22            Position(A)                                  Velocity(au)
C        -0.70467145    -0.01521150     0.01316751    -0.00016627    -0.00009134     0.00005747
C         0.66992443     0.00666186     0.01433798     0.00013983     0.00006918     0.00005372
H        -1.11828737     1.00245709    -0.44186396    -0.00011001     0.00111367    -0.00056883
H        -1.29431776    -0.85012305    -0.37438793    -0.00035800    -0.00060581    -0.00005886
H         1.13715714     0.95954472    -0.38918149     0.00057641     0.00077167    -0.00015205
H         1.13201396    -0.98000053    -0.42355092     0.00020663    -0.00101549    -0.00054514
     6
  Step:    23            Position(A)                                  Velocity(au)
C        -0.70516971    -0.01547156     0.01332069    -0.00019793    -0.00009887     0.00005450
C         0.67034942     0.00686944     0.01447655     0.00017081     0.00008265     0.00004755
H        -1.11845344     1.00537643    -0.44341152    -0.00001127     0.00102007    -0.00056243
H        -1.29531812    -0.85174104    -0.37449853    -0.00037320    -0.00057617    -0.00002180
H         1.13875849     0.96151918    -0.38951315     0.00059421     0.00067094    -0.00009025
H         1.13245208    -0.98265100    -0.42503766     0.00011342    -0.00092154    -0.00054158
     6
  Step:    24            Position(A)                                  Velocity(au)
C        -0.70575397    -0.01575227     0.01346556    -0.00022918    -0.00010641     0.00005139
C         0.67085863     0.00711391     0.01459807     0.00020143     0.00009612     0.00004125
H        -1.11834903     1.00803607    -0.44494000     0.00008772     0.00092382    -0.00055485
H        -1.29635885    -0.85327423    -0.37450717    -0.00038746    -0.00054394     0.00001563
H         1.14040701     0.96321426    -0.38967506     0.00061090     0.00056757    -0.00002800
H         1.13263426    -0.98504064    -0.42651294     0.00001957    -0.00082485    -0.00053676
     6
  Step:    25            Position(A)                                  Velocity(au)
C        -0.70642315    -0.01605354     0.01360177    -0.00026005    -0.00011389     0.00004816
C         0.67145107     0.00739516     0.01470217     0.00023169     0.00010953     0.00003483
H        -1.11797369     1.01042900    -0.44644612     0.00018677     0.00082509    -0.00054605
H        -1.29743722    -0.85471599    -0.37441302    -0.00040068    -0.00050947     0.00005330
H         1.14209962     0.96462335    -0.38966631     0.00062644     0.00046201     0.00003447
H         1.13255911    -0.98716232    -0.42797332    -0.00007468    -0.00072569    -0.00053068
     6
  Step:    26            Position(A)                                  Velocity(au)
C        -0.70717623    -0.01637514     0.01372897    -0.00029056    -0.00012124     0.00004481
C         0.67212582     0.00771294     0.01478857     0.00026163     0.00012281     0.00002830
H        -1.11732753     1.01254868    -0.44792645     0.00028570     0.00072403    -0.00053596
H        -1.29855025    -0.85606062    -0.37421565    -0.00041276    -0.00047307     0.00009107
H         1.14383316     0.96574109    -0.38948654     0.00064082     0.00035472     0.00009698
H         1.13222585    -0.98900963    -0.42941534    -0.00016910    -0.00062431    -0.00052333
     6
  Step:    27            Position(A)                                  Velocity(au)
C        -0.70801228    -0.01671665     0.01384684    -0.00032074    -0.00012843     0.00004135
C         0.67288200     0.00806682     0.01485698     0.00029126     0.00013590     0.00002169
H        -1.11641112     1.01438891    -0.44937742     0.00038434     0.00062079    -0.00052455
H        -1.29969468    -0.85730333    -0.37391495    -0.00042361    -0.00043509     0.00012881
H         1.14560442     0.96656337    -0.38913588     0.00065402     0.00024614     0.00015936
H         1.13163427    -0.99057679    -0.43083555    -0.00026350    -0.00052093    -0.00051473
     6
  Step:    28            Position(A)                                  Velocity(au)
C        -0.70893042    -0.01707753     0.01395510    -0.00035061    -0.00013538     0.00003778
C         0.67371879     0.00845622     0.01490718     0.00032059     0.00014876     0.00001500
H        -1.11522549     1.01594394    -0.45079534     0.00048253     0.00051552    -0.00051178
H        -1.30086709    -0.85844023    -0.37351117    -0.00043319    -0.00039585     0.00016640
H         1.14741015     0.96708729    -0.38861495     0.00066604     0.00013673     0.00022143
H         1.13078471    -0.99185872    -0.43223053    -0.00035768    -0.00041582    -0.00050490
     6
  Step:    29            Position(A)                                  Velocity(au)
C        -0.70992985    -0.01745708     0.01405345    -0.00038020    -0.00014206     0.00003411
C         0.67463539     0.00888042     0.01493899     0.00034964     0.00016133     0.00000825
H        -1.11377207     1.01720839    -0.45217647     0.00058011     0.00040836    -0.00049764
H        -1.30206388    -0.85946833    -0.37300486    -0.00044144    -0.00035568     0.00020374
H         1.14924714     0.96731120    -0.38792481     0.00067690     0.00002694     0.00028303
H         1.12967803    -0.99285100    -0.43359696    -0.00045146    -0.00030921    -0.00049386
     6
  Step:    30            Position(A)                                  Velocity(au)
C        -0.71100980    -0.01785448     0.01414166    -0.00040950    -0.00014841     0.00003036
C         0.67563104     0.00933855     0.01495228     0.00037840     0.00017355     0.00000146
H        -1.11205271     1.01817734    -0.45351707     0.00067695     0.00029949    -0.00048215
H        -1.30328141    -0.86038553    -0.37239688    -0.00044836    -0.00031490     0.00024070
H         1.15111228     0.96723465    -0.38706699     0.00068665    -0.00008278     0.00034399
H         1.12831556    -0.99354989    -0.43493159    -0.00054466    -0.00020137    -0.00048167
     6
  Step:    31            Position(A)                                  Velocity(au)
C        -0.71216949    -0.01826880     0.01421949    -0.00043852    -0.00015442     0.00002653
C         0.67670495     0.00982963     0.01494696     0.00040687     0.00018540    -0.00000535
H        -1.11006967     1.01884637    -0.45481343     0.00077289     0.00018910    -0.00046531
H        -1.30451604    -0.86119058    -0.37168840    -0.00045396    -0.00027380     0.00027719
H         1.15300258     0.96685844    -0.38604344     0.00069534    -0.00019200     0.00040416
H         1.12669914    -0.99395235    -0.43623134    -0.00063711    -0.00009256    -0.00046839
     6
  Step:    32            Position(A)                                  Velocity(au)
C        -0.71340817    -0.01869902     0.01428677    -0.00046725    -0.00016003     0.00002264
C         0.67785630     0.01035257     0.01492300     0.00043503     0.00019684    -0.00001217
H        -1.10782561     1.01921156    -0.45606196     0.00086778     0.00007739    -0.00044719
H        -1.30576421    -0.86188304    -0.37088087    -0.00045828    -0.00023270     0.00031309
H         1.15491527     0.96618458    -0.38485656     0.00070307    -0.00030024     0.00046336
H         1.12483105    -0.99405609    -0.43749330    -0.00072864     0.00001696    -0.00045408
     6
  Step:    33            Position(A)                                  Velocity(au)
C        -0.71472500    -0.01914405     0.01434333    -0.00049567    -0.00016524     0.00001871
C         0.67908424     0.01090618     0.01488042     0.00046287     0.00020782    -0.00001896
H        -1.10532358     1.01926963    -0.45725923     0.00096148    -0.00003540    -0.00042785
H        -1.30702250    -0.86246329    -0.36997605    -0.00046140    -0.00019189     0.00034829
H         1.15684785     0.96521636    -0.38350921     0.00070995    -0.00040705     0.00052144
H         1.12271404    -0.99385959    -0.43871480    -0.00081907     0.00012689    -0.00043884
     6
  Step:    34            Position(A)                                  Velocity(au)
C        -0.71611912    -0.01960273     0.01438907    -0.00052376    -0.00017001     0.00001474
C         0.68038782     0.01148919     0.01481930     0.00049034     0.00021832    -0.00002571
H        -1.10256707     1.01901793    -0.45840198     0.00105382    -0.00014904    -0.00040737
H        -1.30828772    -0.86293250    -0.36897600    -0.00046340    -0.00015163     0.00038269
H         1.15879813     0.96395833    -0.38200468     0.00071609    -0.00051196     0.00057823
H         1.12035135    -0.99336210    -0.43989340    -0.00090824     0.00023693    -0.00042276
     6
  Step:    35            Position(A)                                  Velocity(au)
C        -0.71758957    -0.02007388     0.01442393    -0.00055148    -0.00017434     0.00001075
C         0.68176600     0.01210024     0.01473979     0.00051741     0.00022832    -0.00003240
H        -1.09955999     1.01845451    -0.45948724     0.00114466    -0.00026324    -0.00038586
H        -1.30955695    -0.86329258    -0.36788304    -0.00046439    -0.00011221     0.00041618
H         1.16076433     0.96241631    -0.38034676     0.00072166    -0.00061451     0.00063355
H         1.11774667    -0.99256374    -0.44102696    -0.00099598     0.00034679    -0.00040595
     6
  Step:    36            Position(A)                                  Velocity(au)
C        -0.71913527    -0.02055625     0.01444789    -0.00057878    -0.00017822     0.00000677
C         0.68321764     0.01273791     0.01464210     0.00054404     0.00023778    -0.00003899
H        -1.09630667     1.01757819    -0.46051234     0.00123383    -0.00037773    -0.00036343
H        -1.31082756    -0.86354617    -0.36669981    -0.00046449    -0.00007388     0.00044866
H         1.16274508     0.96059744    -0.37853967     0.00072683    -0.00071420     0.00068723
H         1.11490413    -0.99146545    -0.44211365    -0.00108211     0.00045612    -0.00038854
     6
  Step:    37            Position(A)                                  Velocity(au)
C        -0.72075507    -0.02104859     0.01446098    -0.00060564    -0.00018163     0.00000282
C         0.68474146     0.01340069     0.01452653     0.00057017     0.00024668    -0.00004547
H        -1.09281189     1.01638862    -0.46147491     0.00132117    -0.00049219    -0.00034021
H        -1.31209732    -0.86369664    -0.36542923    -0.00046383    -0.00003691     0.00048002
H         1.16473951     0.95851016    -0.37658815     0.00073176    -0.00081056     0.00073909
H         1.11182837    -0.99006912    -0.44315199    -0.00116646     0.00056460    -0.00037066
     6
  Step:    38            Position(A)                                  Velocity(au)
C        -0.72244765    -0.02154965     0.01446330    -0.00063200    -0.00018459    -0.00000110
C         0.68633604     0.01408704     0.01439342     0.00059576     0.00025500    -0.00005180
H        -1.08908087     1.01488629    -0.46237300     0.00140653    -0.00060630    -0.00031634
H        -1.31336436    -0.86374802    -0.36407449    -0.00046257    -0.00000153     0.00051015
H         1.16674726     0.95616428    -0.37449742     0.00073668    -0.00090309     0.00078895
H         1.10852448    -0.98837753    -0.44414088    -0.00124887     0.00067188    -0.00035245
     6
  Step:    39            Position(A)                                  Velocity(au)
C        -0.72421160    -0.02205816     0.01445498    -0.00065781    -0.00018709    -0.00000495
C         0.68799981     0.01479536     0.01424322     0.00062075     0.00026273    -0.00005796
H        -1.08511926     1.01307265    -0.46320504     0.00148973    -0.00071970    -0.00029199
H        -1.31462722    -0.86370502    -0.36263908    -0.00046086     0.00003201     0.00053897
H         1.16876857     0.95357095    -0.37227319     0.00074178    -0.00099129     0.00083664
H         1.10499803    -0.98639447    -0.44507962    -0.00132916     0.00077759    -0.00033406
     6
  Step:    40            Position(A)                                  Velocity(au)
C        -0.72604534    -0.02257287     0.01443624    -0.00037149    -0.00010287    -0.00000474
C         0.68973108     0.01552399     0.01407645     0.00035086     0.00014677    -0.00003476
H        -1.08093318     1.01095008    -0.46396994     0.00085425    -0.00045254    -0.00014539
H        -1.31588490    -0.86357297    -0.36112674    -0.00024957     0.00003453     0.00030805
H         1.17080424     0.95074271    -0.36992167     0.00040646    -0.00058449     0.00047969
H         1.10125503    -0.98412471    -0.44596792    -0.00076534     0.00047937    -0.00017168
     6
  Step:    41            Position(A)                                  Velocity(au)
C        -0.72709526    -0.02285667     0.01441819    -0.00039621    -0.00010457    -0.00000842
C         0.69072336     0.01593466     0.01397341     0.00037465     0.00015340    -0.00004053
H        -1.07848817     1.00955980    -0.46433364     0.00093323    -0.00056379    -0.00012060
H        -1.31656450    -0.86343701    -0.36024789    -0.00024745     0.00006423     0.00033428
H         1.17192367     0.94903384    -0.36854963     0.00041246    -0.00066375     0.00052304
H         1.09905709    -0.98267339    -0.44641229    -0.00084144     0.00058136    -0.00015338
     6
  Step:    42            Position(A)                                  Velocity(au)
C        -0.72821228    -0.02314477     0.01439017    -0.00042054    -0.00010601    -0.00001203
C         0.69178015     0.01636298     0.01385478     0.00039803     0.00015967    -0.00004615
H        -1.07582915     1.00786660    -0.46462952     0.00101069    -0.00067393    -0.00009585
H        -1.31723826    -0.86322170    -0.35929849    -0.00024534     0.00009245     0.00035960
H         1.17306009     0.94711252    -0.36706104     0.00041896    -0.00073967     0.00056485
H         1.09665301    -0.98094511    -0.44680680    -0.00091602     0.00068175    -0.00013529
     6
  Step:    43            Position(A)                                  Velocity(au)
C        -0.72939530    -0.02343649     0.01435239    -0.00044447    -0.00010721    -0.00001555
C         0.69290026     0.01680795     0.01372100     0.00042094     0.00016556    -0.00005159
H        -1.07296046     1.00587391    -0.46485785     0.00108650    -0.00078265    -0.00007126
H        -1.31790634    -0.86293136    -0.35828116    -0.00024334     0.00011898     0.00038391
H         1.17421506     0.94498842    -0.36546035     0.00042610    -0.00081184     0.00060495
H         1.09404715    -0.97894474    -0.44715219    -0.00098892     0.00078019    -0.00011753
     6
  Step:    44            Position(A)                                  Velocity(au)
C        -0.73064316    -0.02373113     0.01430513    -0.00046795    -0.00010815    -0.00001895
C         0.69408237     0.01726848     0.01357260     0.00044336     0.00017105    -0.00005683
H        -1.06988686     1.00358611    -0.46501928     0.00116047    -0.00088959    -0.00004699
H        -1.31856914    -0.86257095    -0.35719880    -0.00024153     0.00014360     0.00040713
H         1.17539051     0.94267239    -0.36375244     0.00043402    -0.00087983     0.00064318
H         1.09124436    -0.97667808    -0.44744958    -0.00105997     0.00087632    -0.00010024
     6