     6
  Step:  1000            Position(A)                                  Velocity(au)
C        -0.72105788     0.08190485     0.00988861     0.00002278    -0.00000479    -0.00016643
C         0.66659414    -0.00553634    -0.05349292    -0.00001150     0.00023139     0.00000150
H        -1.31378319     0.13878200    -0.95182816    -0.00037187     0.00018845     0.00067975
H        -1.17711008    -0.91233810     0.25480309     0.00071081    -0.00056365     0.00069916
H         1.34118256     0.55446298     0.66115737    -0.00030825    -0.00152181     0.00017948
H         1.24122283    -0.66092164    -0.74576508    -0.00016511    -0.00080320     0.00040689
