    14
  Step:     0            Position(A)                                  Velocity(au)
C        -2.84794168    -1.31071864     0.06597112    -0.00040736     0.00009444     0.00005174
C        -1.43862234    -1.22301984    -0.01304361     0.00013840     0.00005165    -0.00029404
H        -3.46197202    -0.51732332    -0.01984765     0.00055738    -0.00320340     0.00003499
H        -3.15268665    -2.34343564     0.21139836    -0.00010513     0.00007888     0.00080635
H        -0.88434432    -2.23654496    -0.09076782     0.00176961    -0.00048002     0.00012280
C        -0.74221761     0.01292524    -0.18147907    -0.00009273    -0.00002609     0.00022486
C         0.61851196    -0.06929888    -0.29841839    -0.00053288     0.00021602    -0.00003640
H        -1.20180559     1.09247123    -0.21298520     0.00151569    -0.00009527    -0.00056093
H         1.11356462    -1.06218274    -0.30842163     0.00134830    -0.00116368     0.00052963
C         1.33855887     1.15214477    -0.07016380     0.00074505     0.00000632    -0.00001098
H         0.81263253     2.00383112    -0.48993184    -0.00081704     0.00160399    -0.00063959
N         2.65654032     1.24547608     0.41187963    -0.00028420    -0.00012433     0.00000286
H         3.05324944     2.30090390     0.45290089     0.00118364     0.00276347     0.00054755
H         3.38479448     0.57883047     0.65414146     0.00027646    -0.00185278    -0.00010874
    14
  Step:     1            Position(A)                                  Velocity(au)
C        -2.84998125    -1.31030586     0.06625332    -0.00036662     0.00005943     0.00005610
C        -1.43792439    -1.22275930    -0.01460896     0.00012726     0.00004713    -0.00030210
H        -3.45969215    -0.53339351    -0.01972783     0.00028179    -0.00287938     0.00000599
H        -3.15348983    -2.34294302     0.21563426    -0.00019978     0.00010859     0.00080709
H        -0.87523659    -2.23851835    -0.09002674     0.00169379    -0.00026620     0.00015948
C        -0.74274507     0.01280463    -0.18030551    -0.00010804    -0.00001988     0.00022203
C         0.61576415    -0.06815931    -0.29857975    -0.00051226     0.00021690    -0.00002498
H        -1.19374852     1.09128334    -0.21585473     0.00154858    -0.00035348    -0.00053121
H         1.12059768    -1.06810325    -0.30566076     0.00132154    -0.00107743     0.00052156
C         1.34254068     1.15214390    -0.07022279     0.00076981    -0.00000529    -0.00001241
H         0.80850907     2.01244473    -0.49312580    -0.00074296     0.00165996    -0.00056941
N         2.65502339     1.24491805     0.41187330    -0.00029186    -0.00008818    -0.00000471
H         3.05911621     2.31445495     0.45573235     0.00104557     0.00238233     0.00052995
H         3.38601286     0.56893940     0.65353215     0.00017591    -0.00190048    -0.00012754
    14
  Step:     2            Position(A)                                  Velocity(au)
C        -2.85179156    -1.31009458     0.06656019    -0.00032035     0.00001811     0.00006111
C        -1.43728604    -1.22252494    -0.01621589     0.00011569     0.00004179    -0.00030987
H        -3.45901295    -0.54755950    -0.01978471    -0.00004928    -0.00248277    -0.00003201
H        -3.15478456    -2.34229537     0.21987351    -0.00029224     0.00013764     0.00080767
H        -0.86655797    -2.23934034    -0.08909312     0.00160689    -0.00004292     0.00019600
C        -0.74335217     0.01271643    -0.17914751    -0.00012300    -0.00001387     0.00021894
C         0.61313272    -0.06702122    -0.29868066    -0.00048864     0.00021561    -0.00001338
H        -1.18554409     1.08875939    -0.21856344     0.00157126    -0.00060261    -0.00049977
H         1.12744199    -1.07349675    -0.30294481     0.00127720    -0.00096468     0.00051247
C         1.34664261     1.15208917    -0.07029412     0.00079082    -0.00001430    -0.00001563
H         0.80483079     2.02126225    -0.49591122    -0.00064834     0.00168287    -0.00048470
N         2.65347555     1.24455008     0.41183018    -0.00029610    -0.00005216    -0.00001117
H         3.06422889     2.32592060     0.45846585     0.00089768     0.00197281     0.00051032
H         3.38664170     0.55887365     0.65280221     0.00005290    -0.00192000    -0.00015428
    14
  Step:     3            Position(A)                                  Velocity(au)
C        -2.85334519    -1.31011567     0.06689501    -0.00026936    -0.00002841     0.00006668
C        -1.43670951    -1.22232051    -0.01786287     0.00010371     0.00003584    -0.00031734
H        -3.46020961    -0.55946490    -0.02006398    -0.00042736    -0.00202580    -0.00007805
H        -3.15655857    -2.34149767     0.22411557    -0.00038223     0.00016541     0.00080822
H        -0.85836274    -2.23896908    -0.08796853     0.00151040     0.00018688     0.00023209
C        -0.74403672     0.01265898    -0.17800642    -0.00013748    -0.00000830     0.00021560
C         0.61063299    -0.06589522    -0.29872022    -0.00046219     0.00021244    -0.00000160
H        -1.17724882     1.08495539    -0.22110278     0.00158263    -0.00083940    -0.00046681
H         1.13400947    -1.07823330    -0.30027937     0.00121693    -0.00082895     0.00050229
C         1.35084504     1.15199376    -0.07038696     0.00080812    -0.00002090    -0.00002055
H         0.80170090     2.03011637    -0.49821561    -0.00053507     0.00167528    -0.00038699
N         2.65191410     1.24437033     0.41175596    -0.00029716    -0.00001665    -0.00001658
H         3.06854266     2.33517128     0.46109118     0.00074233     0.00154171     0.00048884
H         3.38656838     0.54877761     0.65191208    -0.00009033    -0.00191293    -0.00018808
    14
  Step:     4            Position(A)                                  Velocity(au)
C        -2.85462010    -1.31039295     0.06726042    -0.00021488    -0.00007860     0.00007267
C        -1.43619695    -1.22214859    -0.01954824     0.00009133     0.00002950    -0.00032449
H        -3.46350064    -0.56883230    -0.02060435    -0.00083949    -0.00152593    -0.00013046
H        -3.15879836    -2.34055845     0.22836055    -0.00046956     0.00019118     0.00080885
H        -0.85069736    -2.23737792    -0.08665594     0.00140581     0.00042036     0.00026750
C        -0.74479585     0.01262926    -0.17688351    -0.00015135    -0.00000344     0.00021203
C         0.60827926    -0.06479039    -0.29869750    -0.00043313     0.00020769     0.00001034
H        -1.16892502     1.07994491    -0.22346542     0.00158157    -0.00106044    -0.00043260
H         1.14022085    -1.08220147    -0.29767033     0.00114242    -0.00067372     0.00049097
C         1.35512865     1.15186967    -0.07050992     0.00082178    -0.00002535    -0.00002705
H         0.79921205     2.03885421    -0.49997495    -0.00040522     0.00164004    -0.00027793
N         2.65035510     1.24437524     0.41165609    -0.00029529     0.00001806    -0.00002097
H         3.07202405     2.34210993     0.46359911     0.00058153     0.00109474     0.00046569
H         3.38569319     0.53878617     0.65082720    -0.00025117    -0.00188123    -0.00022795
    14
  Step:     5            Position(A)                                  Velocity(au)
C        -2.85560164    -1.31094103     0.06765809    -0.00015844    -0.00013056     0.00007886
C        -1.43575047    -1.22201070    -0.02127027     0.00007856     0.00002297    -0.00033129
H        -3.46902499    -0.57548860    -0.02143392    -0.00126890    -0.00100457    -0.00018693
H        -3.16148935    -2.33949010     0.23260922    -0.00055402     0.00021423     0.00080969
H        -0.84360048    -2.23455489    -0.08515956     0.00129461     0.00065475     0.00030199
C        -0.74562601     0.01262284    -0.17577991    -0.00016446     0.00000043     0.00020826
C         0.60608471    -0.06371427    -0.29861162    -0.00040167     0.00020164     0.00002246
H        -1.16064088     1.07381982    -0.22564544     0.00156697    -0.00126215    -0.00039741
H         1.14600593    -1.08530797    -0.29512372     0.00105540    -0.00050239     0.00047851
C         1.35947451     1.15172760    -0.07067101     0.00083188    -0.00002787    -0.00003502
H         0.79744566     2.04733832    -0.50113417    -0.00026097     0.00158012    -0.00015924
N         2.64881329     1.24456000     0.41153573    -0.00029073     0.00005177    -0.00002442
H         3.07464923     2.34666705     0.46598135     0.00041699     0.00063681     0.00044106
H         3.38393089     0.52902301     0.64951843    -0.00042678    -0.00182714    -0.00027283
    14
  Step:     6            Position(A)                                  Velocity(au)
C        -2.85628388    -1.31176394     0.06808851    -0.00010177    -0.00018225     0.00008502
C        -1.43537205    -1.22190736    -0.02302714     0.00006541     0.00001644    -0.00033775
H        -3.47682528    -0.57938125    -0.02256733    -0.00169657    -0.00048503    -0.00024477
H        -3.16461610    -2.33830886     0.23686307    -0.00063547     0.00023384     0.00081089
H        -0.83710280    -2.23050243    -0.08348476     0.00117833     0.00088732     0.00033536
C        -0.74652287     0.01263376    -0.17469663    -0.00017668     0.00000302     0.00020430
C         0.60406135    -0.06267298    -0.29846170    -0.00036803     0.00019456     0.00003473
H        -1.15247040     1.06669114    -0.22763854     0.00153773    -0.00144085    -0.00036157
H         1.15130352    -1.08747703    -0.29264556     0.00095757    -0.00031823     0.00046491
C         1.36386414     1.15157699    -0.07087764     0.00083850    -0.00002872    -0.00004434
H         0.79647166     2.05544696    -0.50164714    -0.00010447     0.00149849    -0.00003259
N         2.64730214     1.24491889     0.41139971    -0.00028373     0.00008433    -0.00002697
H         3.07640282     2.34879701     0.46823061     0.00025025     0.00017223     0.00041514
H         3.38121157     0.51959956     0.64796226    -0.00061422    -0.00175306    -0.00032165
    14
  Step:     7            Position(A)                                  Velocity(au)
C        -2.85667030    -1.31285482     0.06855084    -0.00004661    -0.00023168     0.00009089
C        -1.43506358    -1.22183808    -0.02481693     0.00005191     0.00001009    -0.00034383
H        -3.48684050    -0.58058184    -0.02400428    -0.00210312     0.00001000    -0.00030115
H        -3.16816235    -2.33703454     0.24112430    -0.00071376     0.00024941     0.00081257
H        -0.83122694    -2.22523718    -0.08163793     0.00105853     0.00111538     0.00036743
C        -0.74748134     0.01265451    -0.17363454    -0.00018786     0.00000403     0.00020020
C         0.60222001    -0.06167126    -0.29824688    -0.00033245     0.00018669     0.00004717
H        -1.14449327     1.05868960    -0.22944223     0.00149280    -0.00159273    -0.00032545
H         1.15606134    -1.08864964    -0.29024175     0.00085062    -0.00012434     0.00045021
C         1.36827955     1.15142602    -0.07113663     0.00084174    -0.00002812    -0.00005491
H         0.79634858     2.06307388    -0.50147645     0.00006211     0.00139805     0.00010039
N         2.64583384     1.24544551     0.41125253    -0.00027453     0.00011561    -0.00002870
H         3.07727712     2.34847559     0.47034069     0.00008276    -0.00029505     0.00038815
H         3.37748100     0.51061430     0.64614083    -0.00081049    -0.00166149    -0.00037333
    14
  Step:     8            Position(A)                                  Velocity(au)
C        -2.85677336    -1.31419681     0.06904297     0.00000542    -0.00027713     0.00009626
C        -1.43482690    -1.22180139    -0.02663770     0.00003807     0.00000411    -0.00034954
H        -3.49890998    -0.57927622    -0.02572971    -0.00247095     0.00046076    -0.00035342
H        -3.17211119    -2.33568987     0.24539575    -0.00078876     0.00026044     0.00081483
H        -0.82598722    -2.21878992    -0.07962637     0.00093683     0.00133622     0.00039804
C        -0.74849554     0.01267602    -0.17259436    -0.00019784     0.00000315     0.00019597
C         0.60057028    -0.06071259    -0.29796634    -0.00029517     0.00017828     0.00005977
H        -1.13679466     1.04996597    -0.23105602     0.00143116    -0.00171402    -0.00028944
H         1.16023585    -1.08878276    -0.28791794     0.00073620     0.00007628     0.00043447
C         1.37270323     1.15128171    -0.07145421     0.00084171    -0.00002629    -0.00006661
H         0.79712386     2.07012782    -0.50059301     0.00023671     0.00128160     0.00023815
N         2.64441930     1.24613291     0.41109837    -0.00026338     0.00014552    -0.00002967
H         3.07727183     2.34569876     0.47230652    -0.00008409    -0.00076119     0.00036032
H         3.37270068     0.50215242     0.64404192    -0.00101262    -0.00155498    -0.00042682
    14
  Step:     9            Position(A)                                  Velocity(au)
C        -2.85661334    -1.31576490     0.06956163     0.00005304    -0.00031726     0.00010092
C        -1.43466381    -1.22179487    -0.02848743     0.00002387    -0.00000131    -0.00035486
H        -3.51278771    -0.57574338    -0.02771556    -0.00278584     0.00085219    -0.00039939
H        -3.17644503    -2.33429969     0.24968073    -0.00086035     0.00026665     0.00081775
H        -0.82138936    -2.21120567    -0.07745819     0.00081489     0.00154711     0.00042703
C        -0.74955884     0.01268763    -0.17157665    -0.00020649     0.00000011     0.00019166
C         0.59912050    -0.05979920    -0.29761928    -0.00025641     0.00016954     0.00007251
H        -1.12946477     1.04069082    -0.23248160     0.00135193    -0.00180102    -0.00025397
H         1.16379211    -1.08784861    -0.28567945     0.00061592     0.00028080     0.00041775
C         1.37711823     1.15114999    -0.07183607     0.00083848    -0.00002342    -0.00007934
H         0.79883426     2.07653184    -0.49897564     0.00041734     0.00115179     0.00037925
N         2.64306809     1.24697361     0.41094100    -0.00025054     0.00017395    -0.00002995
H         3.07639413     2.34048244     0.47412435    -0.00024880    -0.00122229     0.00033191
H         3.36684761     0.49428559     0.64165882    -0.00121767    -0.00143612    -0.00048107
    14
  Step:    10            Position(A)                                  Velocity(au)
C        -2.85621642    -1.31752835     0.07010269     0.00009530    -0.00035125     0.00010474
C        -1.43457620    -1.22181510    -0.03036406     0.00000930    -0.00000598    -0.00035978
H        -3.52816385    -0.57032742    -0.02992371    -0.00303798     0.00117469    -0.00043748
H        -3.18114564    -2.33288983     0.25398287    -0.00092840     0.00026795     0.00082138
H        -0.81743009    -2.20254382    -0.07514216     0.00069447     0.00174529     0.00045431
C        -0.75066387     0.01267720    -0.17058180    -0.00021368    -0.00000537     0.00018728
C         0.59787774    -0.05893222    -0.29720493    -0.00021643     0.00016071     0.00008539
H        -1.12259816     1.03105358    -0.23372292     0.00125437    -0.00185034    -0.00021947
H         1.16670363    -1.08583411    -0.28353121     0.00049141     0.00048645     0.00040013
C         1.38150809     1.15103577    -0.07228739     0.00083219    -0.00001971    -0.00009301
H         0.80150629     2.08222266    -0.49661057     0.00060208     0.00101117     0.00052230
N         2.64178844     1.24795950     0.41078386    -0.00023626     0.00020076    -0.00002962
H         3.07465925     2.33286355     0.47579191    -0.00040974    -0.00167417     0.00030324
H         3.35991398     0.48707183     0.63899025    -0.00142281    -0.00130752    -0.00053507
    14
  Step:    11            Position(A)                                  Velocity(au)
C        -2.85561261    -1.31945330     0.07066147     0.00013167    -0.00037871     0.00010764
C        -1.43456611    -1.22185766    -0.03226548    -0.00000568    -0.00000971    -0.00036431
H        -3.54468927    -0.56340806    -0.03230953    -0.00322210     0.00142402    -0.00046679
H        -3.18619404    -2.33148596     0.25830595    -0.00099275     0.00026449     0.00082571
H        -0.81409680    -2.19287847    -0.07268757     0.00057739     0.00192795     0.00047977
C        -0.75180263     0.01263127    -0.16961003    -0.00021928    -0.00001351     0.00018288
C         0.59684775    -0.05811163    -0.29672259    -0.00017549     0.00015198     0.00009841
H        -1.11629272     1.02126053    -0.23478621     0.00113798    -0.00185908    -0.00018636
H         1.16895233    -1.08274043    -0.28147772     0.00036425     0.00069055     0.00038171
C         1.38585697     1.15094306    -0.07281280     0.00082293    -0.00001531    -0.00010752
H         0.80515662     2.08715006    -0.49349102     0.00078908     0.00086218     0.00066601
N         2.64058711     1.24908172     0.41062997    -0.00022086     0.00022578    -0.00002875
H         3.07209147     2.32290211     0.47730868    -0.00056505    -0.00211210     0.00027467
H         3.35190683     0.48055539     0.63604014    -0.00162522    -0.00117182    -0.00058783
    14
  Step:    12            Position(A)                                  Velocity(au)
C        -2.85483376    -1.32150511     0.07123301     0.00016197    -0.00039967     0.00010960
C        -1.43463582    -1.22191710    -0.03418960    -0.00002113    -0.00001231    -0.00036842
H        -3.56199891    -0.55537395    -0.03482540    -0.00333705     0.00160047    -0.00048701
H        -3.19157042    -2.33011240     0.26265358    -0.00105323     0.00025664     0.00083070
H        -0.81136700    -2.18229860    -0.07010409     0.00046557     0.00209221     0.00050338
C        -0.75296653     0.01253531    -0.16866142    -0.00022322    -0.00002448     0.00017847
C         0.59603498    -0.05733634    -0.29617158    -0.00013382     0.00014356     0.00011154
H        -1.11064833     1.01153158    -0.23567990     0.00100256    -0.00182508    -0.00015505
H         1.17052856    -1.07858275    -0.27952296     0.00023607     0.00089042     0.00036258
C         1.39014963     1.15087499    -0.07341648     0.00081084    -0.00001039    -0.00012278
H         0.80979238     2.09127635    -0.48961684     0.00097656     0.00070718     0.00080915
N         2.63946926     1.25033043     0.41048192    -0.00020463     0.00024881    -0.00002744
H         3.06872567     2.31068461     0.47867620    -0.00071251    -0.00253058     0.00024663
H         3.34284769     0.47476660     0.63281753    -0.00182218    -0.00103170    -0.00063839
    14
  Step:    13            Position(A)                                  Velocity(au)
C        -2.85391182    -1.32365024     0.07181241     0.00018628    -0.00041448     0.00011065
C        -1.43478798    -1.22198695    -0.03613426    -0.00003712    -0.00001358    -0.00037213
H        -3.57973135    -0.54660167    -0.03742360    -0.00338491     0.00170775    -0.00049834
H        -3.19725394    -2.32879098     0.26702909    -0.00110963     0.00024496     0.00083627
H        -0.80920788    -2.17090836    -0.06740157     0.00036103     0.00223519     0.00052512
C        -0.75414662     0.01237417    -0.16773591    -0.00022543    -0.00003835     0.00017409
C         0.59544251    -0.05660417    -0.29555130    -0.00009170     0.00013565     0.00012479
H        -1.10576494     1.00209549    -0.23641434     0.00084832    -0.00174728    -0.00012586
H         1.17143125    -1.07339021    -0.27767035     0.00010851     0.00108340     0.00034285
C         1.39437151     1.15083391    -0.07410209     0.00079604    -0.00000510    -0.00013868
H         0.81541141     2.09457609    -0.48499419     0.00116275     0.00054848     0.00095053
N         2.63843828     1.25169442     0.41034186    -0.00018795     0.00026953    -0.00002576
H         3.06460941     2.29632870     0.47989851    -0.00084946    -0.00292312     0.00021964
H         3.33277227     0.46972157     0.62933642    -0.00201101    -0.00088989    -0.00068583
    14
  Step:    14            Position(A)                                  Velocity(au)
C        -2.85287765    -1.32585756     0.07239494     0.00020491    -0.00042367     0.00011083
C        -1.43502566    -1.22205971    -0.03809733    -0.00005376    -0.00001332    -0.00037544
H        -3.59754352    -0.53744103    -0.04005845    -0.00337010     0.00175180    -0.00050131
H        -3.20322255    -2.32754008     0.27143518    -0.00116169     0.00023018     0.00084228
H        -0.80757587    -2.15882710    -0.06458986     0.00026584     0.00235399     0.00054500
C        -0.75533374     0.01213256    -0.16683331    -0.00022590    -0.00005508     0.00016975
C         0.59507204    -0.05591185    -0.29486121    -0.00004939     0.00012848     0.00013812
H        -1.10174021     0.99318350    -0.23700149     0.00067596    -0.00162595    -0.00009904
H         1.17166803    -1.06720605    -0.27592274    -0.00001672     0.00126678     0.00032264
C         1.39850881     1.15082143    -0.07487279     0.00077870     0.00000043    -0.00015514
H         0.82200230     2.09703590    -0.47963540     0.00134588     0.00038840     0.00108899
N         2.63749558     1.25316074     0.41021140    -0.00017122     0.00028757    -0.00002383
H         3.05980560     2.27998922     0.48098265    -0.00097262    -0.00328188     0.00019436
H         3.32173025     0.46542191     0.62561564    -0.00218907    -0.00074920    -0.00072924
    14
  Step:    15            Position(A)                                  Velocity(au)
C        -2.85176012    -1.32809916     0.07297627     0.00021827    -0.00042789     0.00011023
C        -1.43535248    -1.22212685    -0.04007670    -0.00007113    -0.00001135    -0.00037834
H        -3.61512055    -0.52820612    -0.04268777    -0.00329854     0.00173983    -0.00049666
H        -3.20945278    -2.32637385     0.27587385    -0.00120913     0.00021317     0.00084859
H        -0.80641630    -2.14618930    -0.06167857     0.00018214     0.00244580     0.00056310
C        -0.75651877     0.01179576    -0.16595341    -0.00022466    -0.00007449     0.00016545
C         0.59492388    -0.05525497    -0.29410087    -0.00000716     0.00012226     0.00015154
H        -1.09866674     0.98502148    -0.23745432     0.00048675    -0.00146299    -0.00007472
H         1.17125565    -1.06008788    -0.27428234    -0.00013787     0.00143777     0.00030207
C         1.40254856     1.15083841    -0.07573123     0.00075898     0.00000605    -0.00017205
H         0.82954443     2.09865460    -0.47355877     0.00152420     0.00022927     0.00122339
N         2.63664027     1.25471414     0.41009160    -0.00015492     0.00030242    -0.00002176
H         3.05439605     2.26186590     0.48193943    -0.00107799    -0.00359746     0.00017158
H         3.30978504     0.46185427     0.62167871    -0.00235376    -0.00061253    -0.00076773
    14
  Step:    16            Position(A)                                  Velocity(au)
C        -2.85058566    -1.33035081     0.07355247     0.00022684    -0.00042785     0.00010893
C        -1.43577262    -1.22217889    -0.04207027    -0.00008936    -0.00000749    -0.00038085
H        -3.63218118    -0.51917127    -0.04527379    -0.00317676     0.00167941    -0.00048528
H        -3.21591954    -2.32530161     0.28034611    -0.00125162     0.00019487     0.00085498
H        -0.80566328    -2.13314400    -0.05867684     0.00011203     0.00250792     0.00057952
C        -0.75769292     0.01135036    -0.16509596    -0.00022181    -0.00009624     0.00016119
C         0.59499690    -0.05462796    -0.29326994     0.00003472     0.00011722     0.00016500
H        -1.09662892     0.97782078    -0.23778612     0.00028256    -0.00126208    -0.00005289
H         1.17022026    -1.05210812    -0.27275069    -0.00025310     0.00159351     0.00028128
C         1.40647875     1.15088499    -0.07667950     0.00073706     0.00001163    -0.00018931
H         0.83800778     2.09944341    -0.46678865     0.00169588     0.00007350     0.00135259
N         2.63586878     1.25633643     0.40998288    -0.00013958     0.00031346    -0.00001969
H         3.04848577     2.24221263     0.48278445    -0.00116066    -0.00385854     0.00015236
H         3.29701357     0.45898984     0.61755374    -0.00250255    -0.00048285    -0.00080045
    14
  Step:    17            Position(A)                                  Velocity(au)
C        -2.84937809    -1.33259193     0.07412012     0.00023112    -0.00042422     0.00010703
C        -1.43629087    -1.22220549    -0.04407602    -0.00010856    -0.00000159    -0.00038299
H        -3.64847943    -0.51057078    -0.04778361    -0.00301141     0.00157798    -0.00046810
H        -3.22259591    -2.32432757     0.28485197    -0.00128879     0.00017626     0.00086127
H        -0.80523985    -2.11985388    -0.05559306     0.00005757     0.00253791     0.00059444
C        -0.75884798     0.01078512    -0.16426078    -0.00021748    -0.00011985     0.00015695
C         0.59528849    -0.05402400    -0.29236819     0.00007596     0.00011360     0.00017850
H        -1.09569956     0.97176845    -0.23800970     0.00006592    -0.00102879    -0.00003336
H         1.16859787    -1.04335455    -0.27132863    -0.00036049     0.00173102     0.00026040
C         1.41028839     1.15096057    -0.07771911     0.00071317     0.00001703    -0.00020679
H         0.84735270     2.09942646    -0.45935538     0.00185905    -0.00007637     0.00147542
N         2.63517455     1.25800571     0.40988488    -0.00012582     0.00031991    -0.00001776
H         3.04220800     2.22134768     0.48353933    -0.00121483    -0.00405195     0.00013794
H         3.28350598     0.45678387     0.61327327    -0.00263296    -0.00036325    -0.00082657
    14
  Step:    18            Position(A)                                  Velocity(au)
C        -2.84815873    -1.33480550     0.07467633     0.00023156    -0.00041766     0.00010461
C        -1.43691258    -1.22219562    -0.04609199    -0.00012882     0.00000645    -0.00038476
H        -3.66380373    -0.50260106    -0.05018926    -0.00280882     0.00144241    -0.00044603
H        -3.22945305    -2.32345070     0.28939026    -0.00132028     0.00015834     0.00086723
H        -0.80505870    -2.10649356    -0.05243464     0.00002061     0.00253376     0.00060808
C        -0.75997669     0.01009178    -0.16344784    -0.00021188    -0.00014469     0.00015270
C         0.59579458    -0.05343500    -0.29139554     0.00011628     0.00011165     0.00019199
H        -1.09593665     0.96701756    -0.23813648    -0.00016006    -0.00077039    -0.00001580
H         1.16643482    -1.03393080    -0.27001627    -0.00045803     0.00184724     0.00023957
C         1.41396767     1.15106379    -0.07885097     0.00068752     0.00002208    -0.00022438
H         0.85752956     2.09864146    -0.45129541     0.00201179    -0.00021769     0.00159072
N         2.63454757     1.25969575     0.40979641    -0.00011431     0.00032089    -0.00001614
H         3.03572893     2.19966347     0.48423299    -0.00123383    -0.00416283     0.00012983
H         3.26936508     0.45517536     0.60887403    -0.00274266    -0.00025684    -0.00084532
    14
  Step:    19            Position(A)                                  Velocity(au)
C        -2.84694654    -1.33697770     0.07521865     0.00022859    -0.00040874     0.00010178
C        -1.43764361    -1.22213774    -0.04811632    -0.00015023     0.00001671    -0.00038618
H        -3.67797462    -0.49542410    -0.05246734    -0.00257483     0.00127890    -0.00041990
H        -3.23646007    -2.32266490     0.29395865    -0.00134569     0.00014202     0.00087262
H        -0.80502340    -2.09324706    -0.04920769     0.00000269     0.00249400     0.00062069
C        -0.76107292     0.00926575    -0.16265726    -0.00020525    -0.00016999     0.00014840
C         0.59650956    -0.05285152    -0.29035207     0.00015540     0.00011163     0.00020546
H        -1.09738038     0.96367861    -0.23817560    -0.00039179    -0.00049564     0.00000030
H         1.16378811    -1.02395686    -0.26881294    -0.00054367     0.00193902     0.00021894
C         1.41750801     1.15119246    -0.08007536     0.00066037     0.00002663    -0.00024197
H         0.86847835     2.09714048    -0.44265140     0.00215207    -0.00034764     0.00169729
N         2.63397420     1.26137539     0.40971538    -0.00010576     0.00031546    -0.00001502
H         3.02925164     2.17763409     0.48490263    -0.00121044    -0.00417546     0.00012964
H         3.25470557     0.45408683     0.60439666    -0.00282948    -0.00016673    -0.00085599
    14
  Step:    20            Position(A)                                  Velocity(au)
C        -2.84575837    -1.33909760     0.07574511     0.00022258    -0.00039797     0.00009861
C        -1.43849015    -1.22202014    -0.05014726    -0.00017283     0.00002918    -0.00038729
H        -3.69084176    -0.48917144    -0.05459863    -0.00231467     0.00109286    -0.00039047
H        -3.24358404    -2.32195931     0.29855362    -0.00136464     0.00012819     0.00087725
H        -0.80503043    -2.08030430    -0.04591679     0.00000489     0.00241793     0.00063260
C        -0.76213199     0.00830671    -0.16188945    -0.00019787    -0.00019492     0.00014400
C         0.59742637    -0.05226274    -0.28923800     0.00019302     0.00011381     0.00021887
H        -1.10005081     0.96181292    -0.23813327    -0.00062528    -0.00021424     0.00001556
H         1.16072577    -1.01356935    -0.26771723    -0.00061531     0.00200320     0.00019865
C         1.42090220     1.15134348    -0.08139183     0.00063199     0.00003051    -0.00025940
H         0.88012829     2.09499087    -0.43347225     0.00227781    -0.00046322     0.00179396
N         2.63343698     1.26300836     0.40963874    -0.00010089     0.00030267    -0.00001456