    14
  Step:  1250            Position(A)                                  Velocity(au)
C        -2.36479665    -0.93296784    -0.79968922    -0.00032213     0.00008839     0.00015599
C        -1.04120400    -1.07820969    -0.34609867    -0.00016219    -0.00079122    -0.00058566
H        -2.92541943    -0.20528743    -0.41771991    -0.00012892    -0.00092423     0.00231836
H        -2.97831757    -1.50630179    -1.32156576     0.00061122    -0.00106516    -0.00115556
H        -0.51283675    -2.11153474    -0.50950918     0.00036234    -0.00067870     0.00055143
C        -0.77163557    -0.20940296     0.78656154    -0.00072885     0.00013337     0.00021804
C         0.44967056     0.43661673     0.61094674    -0.00008217     0.00042399    -0.00013077
H        -1.32776336    -0.35382710     1.73946962    -0.00017052     0.00179127    -0.00121938
H         0.81660337     1.05437936     1.55149056     0.00039686    -0.00228338     0.00166020
C         1.22677990     0.50529998    -0.60622151     0.00050702     0.00032413     0.00063559
H         1.32056042    -0.09077619    -1.38257947    -0.00157618    -0.00023833    -0.00453660
N         2.40228911     0.95022959    -0.24261421     0.00033329     0.00005248     0.00009621
H         3.20508850     1.15212171    -0.88916535     0.00348026    -0.00005608    -0.00348103
H         2.86528278     0.90097768     0.67591934     0.00274412    -0.00015323    -0.00088298
