    14
  Step:     0            Position(A)                                  Velocity(au)
C        -2.84794168    -1.31071864     0.06597112    -0.00040736     0.00009444     0.00005174
C        -1.43862234    -1.22301984    -0.01304361     0.00013840     0.00005165    -0.00029404
H        -3.46197202    -0.51732332    -0.01984765     0.00055738    -0.00320340     0.00003499
H        -3.15268665    -2.34343564     0.21139836    -0.00010513     0.00007888     0.00080635
H        -0.88434432    -2.23654496    -0.09076782     0.00176961    -0.00048002     0.00012280
C        -0.74221761     0.01292524    -0.18147907    -0.00009273    -0.00002609     0.00022486
C         0.61851196    -0.06929888    -0.29841839    -0.00053288     0.00021602    -0.00003640
H        -1.20180559     1.09247123    -0.21298520     0.00151569    -0.00009527    -0.00056093
H         1.11356462    -1.06218274    -0.30842163     0.00134830    -0.00116368     0.00052963
C         1.33855887     1.15214477    -0.07016380     0.00074505     0.00000632    -0.00001098
H         0.81263253     2.00383112    -0.48993184    -0.00081704     0.00160399    -0.00063959
N         2.65654032     1.24547608     0.41187963    -0.00028420    -0.00012433     0.00000286
H         3.05324944     2.30090390     0.45290089     0.00118364     0.00276347     0.00054755
H         3.38479448     0.57883047     0.65414146     0.00027646    -0.00185278    -0.00010874
    14
  Step:     1            Position(A)                                  Velocity(au)
C        -2.84997412    -1.31030360     0.06625318    -0.00036380     0.00006035     0.00005603
C        -1.43794351    -1.22276579    -0.01460507     0.00011977     0.00004461    -0.00030063
H        -3.45968079    -0.53339924    -0.01972264     0.00028651    -0.00288236     0.00000808
H        -3.15352257    -2.34296617     0.21562639    -0.00021246     0.00009980     0.00080420
H        -0.87518411    -2.23855007    -0.09001867     0.00171409    -0.00027888     0.00016253
C        -0.74277573     0.01280373    -0.18030678    -0.00011959    -0.00002010     0.00022157
C         0.61579550    -0.06815942    -0.29858464    -0.00050045     0.00021690    -0.00002680
H        -1.19375754     1.09133948    -0.21586901     0.00154527    -0.00033242    -0.00053664
H         1.12060332    -1.06813587    -0.30566305     0.00132397    -0.00109079     0.00052038
C         1.34252404     1.15215204    -0.07022984     0.00076335    -0.00000224    -0.00001514
H         0.80847564     2.01244764    -0.49311542    -0.00075601     0.00166183    -0.00056619
N         2.65504485     1.24491956     0.41188099    -0.00028347    -0.00008756    -0.00000170
H         3.05912182     2.31442663     0.45573139     0.00104722     0.00237119     0.00052961
H         3.38604800     0.56894620     0.65353982     0.00018863    -0.00189787    -0.00012483
    14
  Step:     2            Position(A)                                  Velocity(au)
C        -2.85176192    -1.31008487     0.06655948    -0.00031452     0.00002006     0.00006095
C        -1.43736467    -1.22255139    -0.01620049     0.00010036     0.00003666    -0.00030697
H        -3.45896336    -0.54759073    -0.01976279    -0.00003912    -0.00249018    -0.00002762
H        -3.15491772    -2.34238769     0.21984316    -0.00031793     0.00012026     0.00080207
H        -0.86634483    -2.23947342    -0.08906112     0.00164796    -0.00006925     0.00020206
C        -0.74347345     0.01271417    -0.17915237    -0.00014587    -0.00001404     0.00021805
C         0.61325682    -0.06702122    -0.29869977    -0.00046521     0.00021571    -0.00001693
H        -1.18557879     1.08898048    -0.21862043     0.00156497    -0.00056138    -0.00051061
H         1.12746756    -1.07363708    -0.30295719     0.00128262    -0.00099318     0.00050957
C         1.34657478     1.15212121    -0.07032277     0.00077764    -0.00000835    -0.00002118
H         0.80469375     2.02128189    -0.49587739    -0.00067513     0.00168819    -0.00047967
N         2.65356365     1.24455658     0.41186177    -0.00027889    -0.00005086    -0.00000500
H         3.06424618     2.32580355     0.45846230     0.00090019     0.00195019     0.00050972
H         3.38677522     0.55890112     0.65283066     0.00007695    -0.00191467    -0.00014931
    14
  Step:     3            Position(A)                                  Velocity(au)
C        -2.85327683    -1.31009292     0.06689318    -0.00026039    -0.00002538     0.00006641
C        -1.43688963    -1.22238086    -0.01782850     0.00008028     0.00002801    -0.00031303
H        -3.46009162    -0.55954842    -0.02001264    -0.00041127    -0.00203879    -0.00007114
H        -3.15686109    -2.34170336     0.22404890    -0.00042108     0.00013992     0.00080001
H        -0.85787901    -2.23927727    -0.08789689     0.00157242     0.00014634     0.00024114
C        -0.74430748     0.01265634    -0.17801703    -0.00017147    -0.00000814     0.00021431
C         0.61091036    -0.06589421    -0.29876245    -0.00042730     0.00021281    -0.00000682
H        -1.17732395     1.08544445    -0.22123093     0.00157374    -0.00077932    -0.00048309
H         1.13407200    -1.07856515    -0.30031213     0.00122584    -0.00087414     0.00049726
C         1.35069001     1.15206437    -0.07045223     0.00078793    -0.00001232    -0.00002900
H         0.80138620     2.03017518    -0.49815235    -0.00057636     0.00168573    -0.00038143
N         2.65211625     1.24438548     0.41182853    -0.00027072    -0.00001465    -0.00000707
H         3.06857465     2.33490543     0.46108394     0.00074528     0.00150797     0.00048808
H         3.38685606     0.54884043     0.65197195    -0.00005637    -0.00190470    -0.00018133
    14
  Step:     4            Position(A)                                  Velocity(au)
C        -2.85449627    -1.31035144     0.06725681    -0.00020268    -0.00007451     0.00007227
C        -1.43652163    -1.22225730    -0.01948755     0.00005964     0.00001886    -0.00031878
H        -3.46328210    -0.56899987    -0.02050986    -0.00081731    -0.00154512    -0.00012087
H        -3.15933950    -2.34091839     0.22824404    -0.00052153     0.00015837     0.00079807
H        -0.84983298    -2.23793676    -0.08652896     0.00148864     0.00036547     0.00027955
C        -0.74527408     0.01262873    -0.17690188    -0.00019631    -0.00000265     0.00021036
C         0.60876977    -0.06478649    -0.29877143    -0.00038688     0.00020853     0.00000352
H        -1.16905305     1.08079686    -0.22369329     0.00157056    -0.00098325    -0.00045433
H         1.14033997    -1.08281633    -0.29773551     0.00115527    -0.00073690     0.00048354
C         1.35484875     1.15199189    -0.07062729     0.00079424    -0.00001446    -0.00003849
H         0.79864141     2.03898364    -0.49988272    -0.00046182     0.00165731    -0.00027299
N         2.65072079     1.24440271     0.41178752    -0.00025924     0.00002075    -0.00000799
H         3.07207235     2.34163858     0.46358764     0.00058475     0.00105063     0.00046489
H         3.38618326     0.53890002     0.65092649    -0.00020873    -0.00186991    -0.00021992
    14
  Step:     5            Position(A)                                  Velocity(au)
C        -2.85540518    -1.31087535     0.06765203    -0.00014295    -0.00012551     0.00007834
C        -1.43626333    -1.22218278    -0.02117600     0.00003855     0.00000942    -0.00032422
H        -3.46867408    -0.57577363    -0.02128187    -0.00124095    -0.00102992    -0.00017458
H        -3.16233767    -2.34004034     0.23242932    -0.00061889     0.00017514     0.00079629
H        -0.84224691    -2.23543948    -0.08496141     0.00139780     0.00058581     0.00031707
C        -0.74636890     0.01262850    -0.17580802    -0.00022025     0.00000215     0.00020622
C         0.60684781    -0.06370448    -0.29872551    -0.00034412     0.00020317     0.00001408
H        -1.16083168     1.07511947    -0.22600176     0.00155435    -0.00116998    -0.00042462
H         1.14620335    -1.08630332    -0.29523451     0.00107253    -0.00058453     0.00046851
C         1.35903031     1.15191251    -0.07085643     0.00079667    -0.00001509    -0.00004954
H         0.79653669     2.04757843    -0.50101898    -0.00033362     0.00160580    -0.00015590
N         2.64939398     1.24460341     0.41174467    -0.00024472     0.00005516    -0.00000781
H         3.07471501     2.34593806     0.46596570     0.00042045     0.00058324     0.00044032
H         3.38466419     0.52920461     0.64966254    -0.00037722    -0.00181258    -0.00026402
    14
  Step:     6            Position(A)                                  Velocity(au)
C        -2.85599739    -1.31166944     0.06807941    -0.00008295    -0.00017643     0.00008439
C        -1.43611679    -1.22215840    -0.02289212     0.00001713    -0.00000014    -0.00032931
H        -3.47631325    -0.57981496    -0.02234312    -0.00166371    -0.00051575    -0.00022968
H        -3.16583846    -2.33907926     0.23660583    -0.00071283     0.00018978     0.00079476
H        -0.83515479    -2.23178518    -0.08319942     0.00130108     0.00080508     0.00035353
C        -0.74758688     0.01265132    -0.17473642    -0.00024315     0.00000599     0.00020189
C         0.60515622    -0.06265306    -0.29862357    -0.00029924     0.00019701     0.00002485
H        -1.15273090     1.06851097    -0.22815222     0.00152410    -0.00133625    -0.00039430
H         1.15160252    -1.08895443    -0.29281568     0.00097924    -0.00041992     0.00045230
C         1.36321448     1.15183342    -0.07114748     0.00079529    -0.00001449    -0.00006201
H         0.79513808     2.05584602    -0.50151978    -0.00019387     0.00153404    -0.00003166
N         2.64815103     1.24498190     0.41170552    -0.00022745     0.00008842    -0.00000662
H         3.07648743     2.34776310     0.46821140     0.00025401     0.00011009     0.00041456
H         3.38222213     0.51986626     0.64815406    -0.00055874    -0.00173520    -0.00031250
    14
  Step:     7            Position(A)                                  Velocity(au)
C        -2.85627621    -1.31272804     0.06853823    -0.00002445    -0.00022535     0.00009020
C        -1.43608347    -1.22218428    -0.02463408    -0.00000452    -0.00000964    -0.00033405
H        -3.48614451    -0.58118953    -0.02369369    -0.00206666    -0.00002472    -0.00028343
H        -3.16982299    -2.33804750     0.24077504    -0.00080301     0.00020188     0.00079354
H        -0.82858437    -2.22698545    -0.08124908     0.00119968     0.00102101     0.00038874
C        -0.74892223     0.01269142    -0.17368800    -0.00026488     0.00000858     0.00019740
C         0.60370556    -0.06163571    -0.29846460    -0.00025246     0.00019031     0.00003580
H        -1.14482718     1.06108762    -0.23014232     0.00147878    -0.00147860    -0.00036373
H         1.15648625    -1.09071282    -0.29048495     0.00087696    -0.00024579     0.00043503
C         1.36738158     1.15176037    -0.07150760     0.00079023    -0.00001291    -0.00007579
H         0.79450085     2.06368724    -0.50135141    -0.00004458     0.00144470     0.00009830
N         2.64700558     1.24553188     0.41167516    -0.00020773     0.00012044    -0.00000450
H         3.07738238     2.34709410     0.47031893     0.00008693    -0.00036492     0.00038779
H         3.37879687     0.51098339     0.64638098    -0.00075015    -0.00164042    -0.00036425
    14
  Step:     8            Position(A)                                  Velocity(au)
C        -2.85625413    -1.31403583     0.06902660     0.00003090    -0.00027059     0.00009555
C        -1.43616425    -1.22225963    -0.02639998    -0.00002629    -0.00001890    -0.00033843
H        -3.49801512    -0.58007452    -0.02531941    -0.00243249     0.00042382    -0.00033329
H        -3.17427078    -2.33695930     0.24493872    -0.00088915     0.00021116     0.00079268
H        -0.82255704    -2.22106363    -0.07911733     0.00109483     0.00123139     0.00042255
C        -0.75036834     0.01274139    -0.17266351    -0.00028526     0.00000960     0.00019278
C         0.60250520    -0.06065464    -0.29824764    -0.00020401     0.00018330     0.00004692
H        -1.13720234     1.05298429    -0.23197172     0.00141740    -0.00159353    -0.00033329
H         1.16081144    -1.09153548    -0.28824752     0.00076722    -0.00006470     0.00041683
C         1.37151260     1.15169788    -0.07194333     0.00078162    -0.00001057    -0.00009075
H         0.79466994     2.07101671    -0.50048750     0.00011233     0.00134034     0.00023263
N         2.64596965     1.24624664     0.41165823    -0.00018589     0.00015114    -0.00000155
H         3.07740026     2.34393106     0.47228351    -0.00007935    -0.00083806     0.00036021
H         3.37434482     0.50264033     0.64432910    -0.00094830    -0.00153096    -0.00041815
    14
  Step:     9            Position(A)                                  Velocity(au)
C        -2.85595170    -1.31556952     0.06954154     0.00008174    -0.00031086     0.00010024
C        -1.43635951    -1.22238272    -0.02818788    -0.00004808    -0.00002774    -0.00034243
H        -3.51168784    -0.57673899    -0.02719351    -0.00274699     0.00081489    -0.00037711
H        -3.17915988    -2.33583015     0.24909890    -0.00097098     0.00021744     0.00079221
H        -0.81708762    -2.21405472    -0.07681186     0.00098780     0.00143398     0.00045485
C        -0.75191776     0.01279225    -0.17166363    -0.00030416     0.00000877     0.00018805
C         0.60156323    -0.05971090    -0.29797186    -0.00015416     0.00017619     0.00005820
H        -1.12994314     1.04435412    -0.23364219     0.00133909    -0.00167757    -0.00030341
H         1.16454279    -1.09139224    -0.28610785     0.00065149     0.00012098     0.00039786
C         1.37558928     1.15164933    -0.07246053     0.00076961    -0.00000769    -0.00010676
H         0.79568038     2.07776207    -0.49890858     0.00027503     0.00122334     0.00037007
N         2.64505356     1.24711900     0.41165889    -0.00016226     0.00018042     0.00000214
H         3.07654916     2.33829372     0.47410150    -0.00024327    -0.00130539     0.00033208
H         3.36883889     0.49490695     0.64199004    -0.00115006    -0.00140958    -0.00047310
    14
  Step:    10            Position(A)                                  Velocity(au)
C        -2.85539579    -1.31730015     0.07007925     0.00012706    -0.00034531     0.00010417
C        -1.43666914    -1.22255092    -0.02999580    -0.00006982    -0.00003599    -0.00034605
H        -3.52686109    -0.57151743    -0.02927940    -0.00300022     0.00113877    -0.00041335
H        -3.18446697    -2.33467602     0.25325770    -0.00104824     0.00022072     0.00079215
H        -0.81218418    -2.20600547    -0.07434100     0.00087992     0.00162655     0.00048551
C        -0.75356228     0.01283345    -0.17068884    -0.00032142     0.00000578     0.00018323
C         0.60088642    -0.05880450    -0.29763653    -0.00010314     0.00016917     0.00006960
H        -1.12314068     1.03536828    -0.23515778     0.00124309    -0.00172742    -0.00027452
H         1.16765273    -1.09026513    -0.28406965     0.00053124     0.00030895     0.00037826
C         1.37959422     1.15161712    -0.07306442     0.00075438    -0.00000443    -0.00012370
H         0.79755802     2.08386294    -0.49660144     0.00044183     0.00109591     0.00050946
N         2.64426580     1.24814122     0.41168072    -0.00013721     0.00020815     0.00000646
H         3.07484571     2.33022323     0.47577061    -0.00040308    -0.00176255     0.00030366
H         3.36226818     0.48783848     0.63936113    -0.00135237    -0.00127910    -0.00052803
    14
  Step:    11            Position(A)                                  Velocity(au)
C        -2.85461748    -1.31919560     0.07063542     0.00016624    -0.00037357     0.00010725
C        -1.43709263    -1.22276063    -0.03182172    -0.00009142    -0.00004346    -0.00034929
H        -3.54319291    -0.56478084    -0.03153405    -0.00318672     0.00139107    -0.00044111
H        -3.19016739    -2.33351244     0.25741723    -0.00112068     0.00022115     0.00079247
H        -0.80784768    -2.19697444    -0.07171357     0.00077256     0.00180682     0.00051445
C        -0.75529294     0.01285297    -0.16973951    -0.00033692     0.00000039     0.00017836
C         0.60048020    -0.05793445    -0.29724100    -0.00005121     0.00016243     0.00008111
H        -1.11688956     1.02621461    -0.23652490     0.00112887    -0.00174019    -0.00024707
H         1.17012131    -1.08814801    -0.28213579     0.00040792     0.00049699     0.00035819
C         1.38351099     1.15160284    -0.07375952     0.00073613    -0.00000093    -0.00014144
H         0.80031995     2.08927016    -0.49355875     0.00061107     0.00096015     0.00064972
N         2.64361278     1.24930478     0.41172674    -0.00011114     0.00023415     0.00001129
H         3.07231645     2.31978530     0.47729019    -0.00055669    -0.00220439     0.00027532
H         3.35463776     0.48147526     0.63644525    -0.00155225    -0.00114237    -0.00058190
    14
  Step:    12            Position(A)                                  Velocity(au)
C        -2.85365012    -1.32122293     0.07120548     0.00019903    -0.00039565     0.00010947
C        -1.43762918    -1.22300729    -0.03366362    -0.00011285    -0.00004996    -0.00035213
H        -3.56032461    -0.55690989    -0.03391143    -0.00330530     0.00157208    -0.00046011
H        -3.19623514    -2.33235372     0.26157941    -0.00118804     0.00021906     0.00079312
H        -0.80407161    -2.18703220    -0.06893877     0.00066721     0.00197246     0.00054162
C        -0.75710023     0.01283753    -0.16881586    -0.00035058    -0.00000763     0.00017347
C         0.60034867    -0.05709882    -0.29678476     0.00000138     0.00015615     0.00009271
H        -1.11128647     1.01709466    -0.23775227     0.00099620    -0.00171361    -0.00022150
H         1.17193622    -1.08504623    -0.28030836     0.00028298     0.00068295     0.00033779
C         1.38732424     1.15160733    -0.07454969     0.00071507     0.00000266    -0.00015985
H         0.80397480     2.09394540    -0.48977875     0.00078117     0.00081808     0.00078982
N         2.64309869     1.25059998     0.41179930    -0.00008453     0.00025814     0.00001650
H         3.06899992     2.30707506     0.47866168    -0.00070154    -0.00262467     0.00024750
H         3.34596818     0.47584256     0.63325068    -0.00174676    -0.00100229    -0.00063368
    14
  Step:    13            Position(A)                                  Velocity(au)
C        -2.85252749    -1.32335033     0.07178495     0.00022548    -0.00041192     0.00011086
C        -1.43827770    -1.22328525    -0.03551944    -0.00013407    -0.00005529    -0.00035460
H        -3.57790159    -0.54827256    -0.03636562    -0.00335821     0.00168569    -0.00047059
H        -3.20264286    -2.33121212     0.26574575    -0.00125005     0.00021488     0.00079402
H        -0.80084141    -2.17626177    -0.06602606     0.00056544     0.00212108     0.00056698
C        -0.75897433     0.01277287    -0.16791792    -0.00036233    -0.00001840     0.00016857
C         0.60049469    -0.05629472    -0.29626743     0.00005438     0.00015051     0.00010437
H        -1.10642850     1.00822015    -0.23885085     0.00084521    -0.00164631    -0.00019818
H         1.17309282    -1.08097645    -0.27858865     0.00015790     0.00086462     0.00031725
C         1.39101984     1.15163072    -0.07543806     0.00069144     0.00000622    -0.00017877
H         0.80852297     2.09786078    -0.48526489     0.00095058     0.00067167     0.00092878
N         2.64272514     1.25201551     0.41190002    -0.00005788     0.00027977     0.00002194
H         3.06494966     2.29222385     0.47988912    -0.00083445    -0.00301574     0.00022078
H         3.33629519     0.47095029     0.62979108    -0.00193304    -0.00086182    -0.00068239
    14
  Step:    14            Position(A)                                  Velocity(au)
C        -2.85128240    -1.32554850     0.07236962     0.00024584    -0.00042293     0.00011149
C        -1.43903707    -1.22358793    -0.03738720    -0.00015506    -0.00005927    -0.00035668
H        -3.59558892    -0.53920856    -0.03885307    -0.00335017     0.00173818    -0.00047316
H        -3.20936183    -2.33009724     0.26991739    -0.00130646     0.00020918     0.00079508
H        -0.79813392    -2.16475888    -0.06298499     0.00046894     0.00225028     0.00059052
C        -0.76090508     0.01264433    -0.16704567    -0.00037218    -0.00003196     0.00016369
C         0.60091966    -0.05551837    -0.29568874     0.00010753     0.00014567     0.00011607
H        -1.10241102     0.99980690    -0.23983334     0.00067647    -0.00153816    -0.00017742
H         1.17359433    -1.07596698    -0.27697693     0.00003421     0.00103978     0.00029674
C         1.39458501     1.15167266    -0.07642696     0.00066552     0.00000966    -0.00019807
H         0.81395681     2.10099851    -0.48002572     0.00111777     0.00052283     0.00106565
N         2.64249090     1.25353782     0.41202971    -0.00003177     0.00029855     0.00002745
H         3.06023743     2.27540702     0.48098003    -0.00095155    -0.00336833     0.00019589
H         3.32566947     0.46679268     0.62608499    -0.00210830    -0.00072397    -0.00072709
    14
  Step:    15            Position(A)                                  Velocity(au)
C        -2.84994592    -1.32779144     0.07295568     0.00026050    -0.00042933     0.00011144
C        -1.43990601    -1.22390764    -0.03926491    -0.00017581    -0.00006168    -0.00035839
H        -3.61308150    -0.53002008    -0.04133426    -0.00328736     0.00173704    -0.00046866
H        -3.21636185    -2.32901554     0.27409478    -0.00135696     0.00020257     0.00079615
H        -0.79591706    -2.15263181    -0.05982501     0.00037945     0.00235764     0.00061230
C        -0.76288256     0.01243729    -0.16619899    -0.00038019    -0.00004823     0.00015884
C         0.60162381    -0.05476500    -0.29504858     0.00016061     0.00014185     0.00012777
H        -1.09932494     0.99206805    -0.24071389     0.00049111    -0.00139046    -0.00015942
H         1.17345201    -1.07005777    -0.27547263    -0.00008655     0.00120619     0.00027642
C         1.39800840     1.15173217    -0.07751797     0.00063758     0.00001286    -0.00021758
H         0.82026061     2.10335097    -0.47407464     0.00128119     0.00037352     0.00119950
N         2.64239150     1.25515051     0.41218827    -0.00000686     0.00031385     0.00003285
H         3.05495756     2.25685334     0.48194612    -0.00104809    -0.00367129     0.00017373
H         3.31415615     0.46334797     0.62215601    -0.00226980    -0.00059182    -0.00076684
    14
  Step:    16            Position(A)                                  Velocity(au)
C        -2.84854687    -1.33005685     0.07353981     0.00026990    -0.00043184     0.00011081
C        -1.44088324    -1.22423560    -0.04115064    -0.00019632    -0.00006231    -0.00035974
H        -3.63010921    -0.52096808    -0.04377446    -0.00317655     0.00169010    -0.00045803
H        -3.22361120    -2.32797006     0.27827766    -0.00140128     0.00019572     0.00079710
H        -0.79414932    -2.14000145    -0.05655529     0.00029881     0.00244080     0.00063238
C        -0.76489741     0.01213791    -0.16537772    -0.00038650    -0.00006698     0.00015401
C         0.60260624    -0.05402882    -0.29434701     0.00021342     0.00013923     0.00013945
H        -1.09725387     0.98520575    -0.24150740     0.00029084    -0.00120621    -0.00014426
H         1.17268549    -1.06330087    -0.27407423    -0.00020273     0.00136147     0.00025650
C         1.40128020     1.15180773    -0.07871181     0.00060793     0.00001572    -0.00023715
H         0.82741053     2.10492080    -0.46742986     0.00143928     0.00022572     0.00132943
N         2.64241886     1.25683355     0.41237462     0.00001614     0.00032494     0.00003793
H         3.04923150     2.23685506     0.48280432    -0.00111851    -0.00391168     0.00015539
H         3.30183443     0.46057801     0.61803251    -0.00241494    -0.00046853    -0.00080075
    14
  Step:    17            Position(A)                                  Velocity(au)
C        -2.84711169    -1.33232612     0.07411924     0.00027448    -0.00043112     0.00010969
C        -1.44196755    -1.22456198    -0.04304255    -0.00021659    -0.00006097    -0.00036075
H        -3.64643820    -0.51227252    -0.04614401    -0.00302451     0.00160487    -0.00044222
H        -3.23107660    -2.32696033     0.28246501    -0.00143913     0.00018928     0.00079777
H        -0.79277926    -2.12700113    -0.05318446     0.00022888     0.00249748     0.00065088
C        -0.76694114     0.01173390    -0.16458173    -0.00039132    -0.00008787     0.00014920
C         0.60386495    -0.05330297    -0.29358425     0.00026576     0.00013803     0.00015106
H        -1.09627086     0.97940175    -0.24222874     0.00007793    -0.00099013    -0.00013184
H         1.17132317    -1.05576106    -0.27277913    -0.00031261     0.00150311     0.00023717
C         1.40439226     1.15189727    -0.08000830     0.00057690     0.00001813    -0.00025660
H         0.83537443     2.10572124    -0.46011436     0.00159043     0.00008149     0.00145454
N         2.64256098     1.25856267     0.41258656     0.00003645     0.00033095     0.00004248
H         3.04321219     2.21577714     0.48357788    -0.00115645    -0.00407497     0.00014218
H         3.28879710     0.45842792     0.61374739    -0.00254118    -0.00035729    -0.00082799
    14
  Step:    18            Position(A)                                  Velocity(au)
C        -2.84566460    -1.33458401     0.07469170     0.00027462    -0.00042780     0.00010820
C        -1.44315768    -1.22487589    -0.04493888    -0.00023662    -0.00005747    -0.00036144
H        -3.66186936    -0.50411543    -0.04841816    -0.00283755     0.00148817    -0.00042212
H        -3.23872335    -2.32598243     0.28665498    -0.00147022     0.00018390     0.00079802
H        -0.79174588    -2.11377561    -0.04972047     0.00017146     0.00252562     0.00066795
C        -0.76900660     0.01121522    -0.16381102    -0.00039494    -0.00011039     0.00014437
C         0.60539700    -0.05257933    -0.29276074     0.00031746     0.00013851     0.00016257
H        -1.09643554     0.97480845    -0.24289180    -0.00014480    -0.00074861    -0.00012189
H         1.16940275    -1.04751683    -0.27158372    -0.00041439     0.00162842     0.00021864
C         1.40733814     1.15199810    -0.08140637     0.00054480     0.00001996    -0.00027575
H         0.84411155     2.10577653    -0.45215590     0.00173298    -0.00005701     0.00157390
N         2.64280162     1.26030881     0.41282073     0.00005326     0.00033095     0.00004628
H         3.03708775     2.19406413     0.48429732    -0.00115501    -0.00414577     0.00013554
H         3.27514973     0.45682609     0.60933783    -0.00264618    -0.00026128    -0.00084778
    14
  Step:    19            Position(A)                                  Velocity(au)
C        -2.84422787    -1.33681837     0.07525544     0.00027068    -0.00042240     0.00010641
C        -1.44445232    -1.22516550    -0.04683798    -0.00025640    -0.00005164    -0.00036182
H        -3.67623506    -0.49664537    -0.05057662    -0.00262124     0.00134585    -0.00039852
H        -3.24651530    -2.32502924     0.29084492    -0.00149431     0.00018014     0.00079768
H        -0.79097876    -2.10047982    -0.04617033     0.00012828     0.00252345     0.00068380
C        -0.77108835     0.01057475    -0.16306571    -0.00039771    -0.00013393     0.00013950
C         0.60719856    -0.05184852    -0.29187713     0.00036835     0.00014090     0.00017393
H        -1.09779135     0.97154060    -0.24350868    -0.00037404    -0.00048947    -0.00011400
H         1.16697165    -1.03866111    -0.27048325    -0.00050618     0.00173461     0.00020111
C         1.41011321     1.15210687    -0.08290395     0.00051200     0.00002108    -0.00029442
H         0.85357232     2.10512255    -0.44358701     0.00186520    -0.00018751     0.00168660
N         2.64312021     1.26203791     0.41307253     0.00006575     0.00032401     0.00004908
H         3.03108348     2.17224270     0.48500122    -0.00110723    -0.00410893     0.00013705
H         3.26100977     0.45568423     0.60484492    -0.00272783    -0.00018361    -0.00085942
    14
  Step:    20            Position(A)                                  Velocity(au)
C        -2.84282217    -1.33901956     0.07580914     0.00026293    -0.00041537     0.00010442
C        -1.44585008    -1.22541814    -0.04873835    -0.00027588    -0.00004333    -0.00036194
H        -3.68939475    -0.48998280    -0.05260299    -0.00238041     0.00118287    -0.00037212
H        -3.25441495    -2.32409077     0.29503139    -0.00151114     0.00017852     0.00079663
H        -0.79039885    -2.08727710    -0.04253989     0.00010081     0.00248967     0.00069867
C        -0.77318297     0.00980886    -0.16234618    -0.00040006    -0.00015780     0.00013452
C         0.60926506    -0.05109977    -0.29093431     0.00041832     0.00014548     0.00018510
H        -1.10036326     0.96966854    -0.24408891    -0.00060614    -0.00022157    -0.00010763
H         1.16408739    -1.02930182    -0.26947182    -0.00058601     0.00181872     0.00018484
C         1.41271465     1.15221950    -0.08449802     0.00047884     0.00002135    -0.00031241
H         0.86369791     2.10380748    -0.43444505     0.00198530    -0.00030754     0.00179171
N         2.64349207     1.26371125     0.41333614     0.00007320     0.00030936     0.00005067