 Fermi distribution function
 
Calculation with static geometry
 

********************************************************************************
 iSCC Total electronic   Diff electronic      SCC error    
    8   -0.55293566E+01   -0.13535839E-11    0.27741548E-06
********************************************************************************
 
 Total charge:     1.00000000

 Atomic gross charges (e)
 Atom           Charge
    1       0.15966854
    2      -0.01305995
    3       0.15618412
    4       0.16933786
    5       0.26270047
    6       0.26516897
 
Nr. of electrons (up):     12.00000000
Atom populations (up)
 Atom       Population
    1       3.84033146
    2       5.01305995
    3       0.84381588
    4       0.83066214
    5       0.73729953
    6       0.73483103
 
l-shell populations (up)
 Atom Sh.   l       Population
    1   1   0       1.26481133
    1   2   1       2.57552013
    2   1   0       1.39575480
    2   2   1       3.61730515
    3   1   0       0.84381588
    4   1   0       0.83066214
    5   1   0       0.73729953
    6   1   0       0.73483103
 
Orbital populations (up)
 Atom Sh.   l   m       Population  Label
    1   1   0   0       1.26481133  s
    1   2   1  -1       0.92568456  p_y
    1   2   1   0       0.74715725  p_z
    1   2   1   1       0.90267831  p_x
    2   1   0   0       1.39575480  s
    2   2   1  -1       1.26137466  p_y
    2   2   1   0       1.25546549  p_z
    2   2   1   1       1.10046500  p_x
    3   1   0   0       0.84381588  s
    4   1   0   0       0.83066214  s
    5   1   0   0       0.73729953  s
    6   1   0   0       0.73483103  s
 
Fermi level:                        -0.4817557752 H          -13.1092 eV
Band energy:                        -9.1257582629 H         -248.3245 eV
TS:                                  0.0000000000 H            0.0000 eV
Band free energy (E-TS):            -9.1257582629 H         -248.3245 eV
Extrapolated E(0K):                 -9.1257582629 H         -248.3245 eV
Input / Output electrons (q):     12.0000000000     12.0000000000
 
Energy H0:                          -5.6654400828 H         -154.1645 eV
Energy SCC:                          0.1360834956 H            3.7030 eV
Total Electronic energy:            -5.5293565872 H         -150.4614 eV
Repulsive energy:                    0.2540306014 H            6.9125 eV
Total energy:                       -5.2753259858 H         -143.5489 eV
Extrapolated to 0:                  -5.2753259858 H         -143.5489 eV
Total Mermin free energy:           -5.2753259858 H         -143.5489 eV
Force related energy:               -5.2753259858 H         -143.5489 eV
 
SCC converged
 
Excitation Energy:                   0.2164357544 H            5.8895 eV
 
Total Forces
    1      0.015109043413     -0.006533979406     -0.002401769599
    2     -0.012406381394      0.002175512911     -0.002031769537
    3     -0.001605593107      0.002609689537     -0.007389749174
    4      0.005305947875     -0.001967582949      0.008433901566
    5     -0.003827811986     -0.005918676401      0.006285199221
    6     -0.002575204802      0.009635036307     -0.002895812476
 
Maximal derivative component:        0.151090E-01 au
 
 
