|===============================================================================
|
|  DFTB+ release 20.1
|
|  Copyright (C) 2006 - 2020  DFTB+ developers group
|
|===============================================================================
|
|  When publishing results obtained with DFTB+, please cite the following
|  reference:
|
|  * DFTB+, a software package for efficient approximate density functional
|    theory based atomistic simulations, J. Chem. Phys. 152, 124101 (2020).
|    [doi: 10.1063/1.5143190]
|
|  You should also cite additional publications crediting the parametrization
|  data you use. Please consult the documentation of the SK-files for the
|  references.
|
|===============================================================================

Reading input file 'dftb_in.hsd'
Parser version: 8

--------------------------------------------------------------------------------
Reading SK-files:
Done.


Processed input in HSD format written to 'dftb_pin.hsd'

Starting initialization...
--------------------------------------------------------------------------------
OpenMP threads:              1
Chosen random seed:          952735324
Mode:                        Static calculation
Self consistent charges:     Yes
SCC-tolerance:                 0.100000E-05
Max. scc iterations:                    200
Shell resolved Hubbard:      No
Spin polarisation:           No
Nr. of up electrons:             6.000000
Nr. of down electrons:           6.000000
Periodic boundaries:         No
Electronic solver:           Relatively robust
Mixer:                       Broyden mixer
Mixing parameter:                  0.200000
Maximal SCC-cycles:                     200
Nr. of chrg. vec. in memory:              0
Electronic temperature:        0.100000E-07 H      0.272114E-06 eV
Initial charges:             Set automatically (system chrg:   0.100E+01)
Included shells:             C:  s, p
                             N:  s, p
                             H:  s
Extra options:
                             Mulliken analysis
                             Force calculation
Force type                   original
                             Eigenvector printing

--------------------------------------------------------------------------------

***  Geometry step: 0

 iSCC Total electronic   Diff electronic      SCC error    
    1   -0.55254705E+01    0.00000000E+00    0.55318327E+00
    2   -0.55274015E+01   -0.19309777E-02    0.39409151E+00
    3   -0.55292805E+01   -0.18789404E-02    0.36391369E-01
    4   -0.55293564E+01   -0.75909653E-04    0.47449331E-02
    5   -0.55293563E+01    0.10631018E-06    0.17698164E-02
    6   -0.55293566E+01   -0.31619588E-06    0.72289310E-04
    7   -0.55293566E+01   -0.66176398E-10    0.40376979E-05
    8   -0.55293566E+01   -0.13535839E-11    0.27741548E-06
>> Charges saved for restart in charges.bin
 
Total Energy:                       -5.0588902314 H         -137.6594 eV
Extrapolated to 0:                  -5.2753259858 H         -143.5489 eV
Total Mermin free energy:           -5.0588902314 H         -137.6594 eV
Force related energy:               -5.2753259858 H         -143.5489 eV
 
--------------------------------------------------------------------------------
DFTB+ running times                          cpu [s]             wall clock [s]
--------------------------------------------------------------------------------
SCC                                    +     0.01  ( 63.5%)      0.01  ( 64.0%)
--------------------------------------------------------------------------------
Missing                                +     0.01  ( 36.5%)      0.01  ( 36.0%)
Total                                  =     0.02  (100.0%)      0.02  (100.0%)
--------------------------------------------------------------------------------
