     6
  Step:  1000            Position(A)                                  Velocity(au)
C        -0.79246856    -0.01731335     0.17048121    -0.00019202    -0.00009438     0.00015684
C         0.62156020     0.04489874    -0.15241946     0.00002555     0.00014135    -0.00023328
H         0.26239536     0.57833591    -1.07154193     0.00147330     0.00054084    -0.00001317
H        -1.18261649    -0.90756579    -0.33260782     0.00041729    -0.00022644    -0.00010456
H         1.17929166     0.85639467     0.29842471     0.00050209    -0.00031742     0.00005983
H         1.22000179    -0.82587118    -0.41072445    -0.00040902    -0.00055668     0.00096882
