|===============================================================================
|
|  DFTB+ release 20.1
|
|  Copyright (C) 2006 - 2020  DFTB+ developers group
|
|===============================================================================
|
|  When publishing results obtained with DFTB+, please cite the following
|  reference:
|
|  * DFTB+, a software package for efficient approximate density functional
|    theory based atomistic simulations, J. Chem. Phys. 152, 124101 (2020).
|    [doi: 10.1063/1.5143190]
|
|  You should also cite additional publications crediting the parametrization
|  data you use. Please consult the documentation of the SK-files for the
|  references.
|
|===============================================================================

Reading input file 'dftb_in.hsd'
Parser version: 8

--------------------------------------------------------------------------------
Reading SK-files:
Done.


Processed input in HSD format written to 'dftb_pin.hsd'

Starting initialization...
--------------------------------------------------------------------------------
OpenMP threads:              1
Chosen random seed:          2146382500
Mode:                        Static calculation
Self consistent charges:     Yes
SCC-tolerance:                 0.100000E-05
Max. scc iterations:                  10000
Shell resolved Hubbard:      No
Spin polarisation:           No
Nr. of up electrons:            16.000000
Nr. of down electrons:          16.000000
Periodic boundaries:         No
Electronic solver:           Relatively robust
Maximal SCC-cycles:                   10000
Initial charges:             Set automatically (system chrg:   0.100E+01)
Included shells:             C:  s, p
                             H:  s
                             N:  s, p
Spin coupling constants:     C   1(s)-1(s):  -0.455900E-01
                             C   1(s)-2(p):  -0.293000E-01
                             C   2(p)-1(s):  -0.293000E-01
                             C   2(p)-2(p):  -0.275500E-01
                             H   1(s)-1(s):  -0.792500E-01
                             N   1(s)-1(s):  -0.468700E-01
                             N   1(s)-2(p):  -0.317000E-01
                             N   2(p)-1(s):  -0.317000E-01
                             N   2(p)-2(p):  -0.307200E-01
Range separated hybrid:      Yes
  Screening parameter omega:   0.300000E+00
  Range separated algorithm:   MatrixBased
Extra options:
                             Mulliken analysis
                             Force calculation
Force type                   original
                             Eigenvector printing
 
 
REKS Calcuation:             Yes
SSR(2,2) Calcuation:         Yes
Energy Functional:           (PPS+OSS)/2
Number of Core Orbitals:                 15
Number of Active Orbitals:                2
Number of Basis:                         32
Number of States:                         2
State-Averaging Weight:          0.500000
                                 0.500000
State of Interest:                        1
Initial Guess:               Diagonalize H0 matrix
Newton-Raphson for FON opt:  Yes
NR max. Iterations:                      50
Level Shifting:              Yes
Shift Value:                     0.300000
W Scale Factor:              C  =    3.200000
                             H  =    3.200000
                             N  =    3.200000
Transition Dipole:           No
Gradient of Microstate:      No
CP-REKS Solver:              Preconditioned Conjugate-Gradient
CG max. Iterations:                     100
CG Tolerance:                  0.100000E-07
Memory for A and Hxc:        Save in Cache Memory
Non-Adiabatic Coupling:      Yes

--------------------------------------------------------------------------------

***  Geometry step: 0

  iSCC       reks energy        Diff energy         x_a       SCC error   
    1      -16.3532495011       0.0000000000     0.997333    1.21244186
    2      -16.3707171437      -0.0174676426     0.999615    0.06266690
    3      -16.3748230780      -0.0041059344     0.999882    0.02860997
    4      -16.3764813816      -0.0016583036     0.999949    0.01526844
    5      -16.3773047399      -0.0008233583     0.999972    0.00916397
    6      -16.3777540860      -0.0004493461     0.999983    0.00696056
    7      -16.3780142098      -0.0002601238     0.999988    0.00540957
    8      -16.3781717810      -0.0001575712     0.999991    0.00414988
    9      -16.3782710082      -0.0000992273     0.999993    0.00316595
   10      -16.3783356514      -0.0000646432     0.999994    0.00241351
   11      -16.3783790048      -0.0000433534     0.999995    0.00184432
   12      -16.3784087872      -0.0000297824     0.999995    0.00141565
   13      -16.3784296450      -0.0000208578     0.999996    0.00109372
   14      -16.3784444751      -0.0000148301     0.999996    0.00094732
   15      -16.3784551431      -0.0000106680     0.999996    0.00081907
   16      -16.3784628861      -0.0000077430     0.999996    0.00070730
   17      -16.3784685446      -0.0000056585     0.999996    0.00061025
   18      -16.3784727015      -0.0000041569     0.999997    0.00052623
   19      -16.3784757676      -0.0000030661     0.999997    0.00045362
   20      -16.3784780361      -0.0000022686     0.999997    0.00039096
   21      -16.3784797187      -0.0000016826     0.999997    0.00033694
   22      -16.3784809691      -0.0000012504     0.999997    0.00029040
   23      -16.3784818997      -0.0000009306     0.999997    0.00025031
   24      -16.3784825931      -0.0000006934     0.999997    0.00021579
   25      -16.3784831103      -0.0000005172     0.999997    0.00018607
   26      -16.3784834964      -0.0000003861     0.999997    0.00016048
   27      -16.3784837848      -0.0000002884     0.999997    0.00013843
   28      -16.3784840004      -0.0000002155     0.999997    0.00011944
   29      -16.3784841615      -0.0000001612     0.999997    0.00010308
   30      -16.3784842821      -0.0000001205     0.999997    0.00008898
   31      -16.3784843723      -0.0000000902     0.999997    0.00007683
   32      -16.3784844398      -0.0000000675     0.999997    0.00006635
   33      -16.3784844903      -0.0000000505     0.999997    0.00005730
   34      -16.3784845281      -0.0000000378     0.999997    0.00004951
   35      -16.3784845565      -0.0000000283     0.999997    0.00004277
   36      -16.3784845777      -0.0000000212     0.999997    0.00003696
   37      -16.3784845936      -0.0000000159     0.999997    0.00003195
   38      -16.3784846055      -0.0000000119     0.999997    0.00002762
   39      -16.3784846144      -0.0000000089     0.999997    0.00002388
   40      -16.3784846211      -0.0000000067     0.999997    0.00002064
   41      -16.3784846261      -0.0000000050     0.999997    0.00001785
   42      -16.3784846299      -0.0000000038     0.999997    0.00001544
   43      -16.3784846327      -0.0000000028     0.999997    0.00001335
   44      -16.3784846348      -0.0000000021     0.999997    0.00001155
   45      -16.3784846364      -0.0000000016     0.999997    0.00000999
   46      -16.3784846376      -0.0000000012     0.999997    0.00000864
   47      -16.3784846385      -0.0000000009     0.999997    0.00000748
   48      -16.3784846391      -0.0000000007     0.999997    0.00000647
   49      -16.3784846396      -0.0000000005     0.999997    0.00000560
   50      -16.3784846400      -0.0000000004     0.999997    0.00000484
   51      -16.3784846403      -0.0000000003     0.999997    0.00000419
   52      -16.3784846405      -0.0000000002     0.999997    0.00000363
   53      -16.3784846406      -0.0000000002     0.999997    0.00000314
   54      -16.3784846408      -0.0000000001     0.999997    0.00000272
   55      -16.3784846408      -0.0000000001     0.999997    0.00000235
   56      -16.3784846409      -0.0000000001     0.999997    0.00000204
   57      -16.3784846410      -0.0000000000     0.999997    0.00000176
   58      -16.3784846410      -0.0000000000     0.999997    0.00000152
   59      -16.3784846410      -0.0000000000     0.999997    0.00000132
   60      -16.3784846411      -0.0000000000     0.999997    0.00000114
   61      -16.3784846411      -0.0000000000     0.999997    0.00000099
  
--------------------------------------------------
 Final SA-REKS(2,2) energy:     -16.37848464
  
 State     Energy      FON(1)    FON(2)   Spin
  PPS  -16.44560488   1.999994  0.000006  0.00
  OSS  -16.31136440   1.000000  1.000000  0.00
 Trip  -16.34797626   1.000000  1.000000  1.00
--------------------------------------------------
 
 Lagrangian Wab:   0.00033018  0.00033053
 
--------------------------------------------------
 SSR: 2SI-2SA-REKS(2,2) Hamiltonian matrix
               PPS           OSS
   PPS   -16.44560488    0.00046617
   OSS     0.00046617  -16.31136440
--------------------------------------------------
 
----------------------------------------------------------------
 SSR: 2SI-2SA-REKS(2,2) states
                    E_n       C_{PPS}    C_{OSS}
 SSR state  1  -16.44560650  -0.999994   0.003473
 SSR state  2  -16.31136278  -0.003473  -0.999994
----------------------------------------------------------------
 
 unrelaxed SSR FONs for S0:  1.999982  0.000018
 
Total Energy:                      -16.4456064998 H         -447.5077 eV
Extrapolated to 0:                 -16.4456064998 H         -447.5077 eV

----------------------------------------------------------------------------------
 Solving CP-REKS equation for  1 state vector...
----------------------------------------------------------------------------------
  CG solver: Constructing Y initial guess
  CG solver: Iteration    1    eps =    0.000724164109
  CG solver: Iteration    2    eps =    0.000140219254
  CG solver: Iteration    3    eps =    0.000013502209
  CG solver: Iteration    4    eps =    0.000000876549
  CG solver: Iteration    5    eps =    0.000000186174
  CG solver: Iteration    6    eps =    0.000000036496
  CG solver: Iteration    7    eps =    0.000000003612
  Convergence reached in CG solver after    7 iterations
  CG solver: Calculating converged R, Z, Q2 matrix
----------------------------------------------------------------------------------

----------------------------------------------------------------------------------
 Solving CP-REKS equation for SI between  1 and  2 state vectors...
----------------------------------------------------------------------------------
  CG solver: Constructing Y initial guess
  CG solver: Iteration    1    eps =    0.050602702540
  CG solver: Iteration    2    eps =    0.001317103818
  CG solver: Iteration    3    eps =    0.000184506407
  CG solver: Iteration    4    eps =    0.000065465262
  CG solver: Iteration    5    eps =    0.000003935237
  CG solver: Iteration    6    eps =    0.000000562964
  CG solver: Iteration    7    eps =    0.000000355331
  CG solver: Iteration    8    eps =    0.000000021477
  CG solver: Iteration    9    eps =    0.000000001821
  Convergence reached in CG solver after    9 iterations
  CG solver: Calculating converged R, Z, Q2 matrix
----------------------------------------------------------------------------------
 
--------------------------------------------------
 Gradient Information
--------------------------------------------------
 1 st state (SSR)
     0.02460870    -0.02027219    -0.02987060
     0.06254175     0.01684783     0.06711311
    -0.00355385     0.00872275     0.00665365
    -0.01219191     0.00889415    -0.01806948
    -0.03468634     0.01971231     0.00168836
     0.03637979    -0.01694998     0.04768059
    -0.00941131    -0.00183373    -0.06633233
     0.00062683     0.02488186    -0.01060108
     0.00286915    -0.00678928    -0.00457490
    -0.14024724    -0.01806880    -0.05263123
     0.06267830    -0.01846586     0.02688019
    -0.09042580    -0.00442279    -0.10478165
    -0.00917369    -0.00618120     0.02853216
     0.10998562     0.01392493     0.10831321

 2 st state (SSR)
     0.04087331    -0.00966572     0.01183181
     0.03258968    -0.01627971     0.03389692
    -0.00444342     0.00865774     0.00700710
    -0.01083160     0.00887512    -0.01663635
    -0.03202265     0.02000704     0.00134184
     0.05023031     0.03484444     0.05004696
    -0.01722942    -0.00964587    -0.09648827
     0.00337411     0.02398415    -0.00933661
     0.00553150    -0.00803401    -0.00852368
    -0.12947150    -0.00044980    -0.12933139
     0.06582957    -0.01055058     0.02681876
    -0.09995580    -0.05286289    -0.00593614
    -0.00570387    -0.00423569     0.02721894
     0.10122977     0.01535578     0.10809012
--------------------------------------------------
 Coupling Information
--------------------------------------------------
 between  1 and  2 states
--------------------------------------------------
 g vector - difference gradient
    -0.00818099    -0.00534236    -0.02095120
     0.01501194     0.01659725     0.01670441
     0.00044469     0.00003614    -0.00017544
    -0.00067947     0.00001390    -0.00071677
    -0.00133623    -0.00014417     0.00017444
    -0.00673524    -0.02573598    -0.00103404
     0.00374889     0.00368357     0.01495931
    -0.00139050     0.00047789    -0.00063599
    -0.00135534     0.00064849     0.00197197
    -0.00536162    -0.00886265     0.03848247
    -0.00158704    -0.00397542     0.00002814
     0.00477269     0.02430469    -0.04957701
    -0.00174219    -0.00097203     0.00066050
     0.00439043    -0.00072932     0.00010922

 h vector - derivative coupling
    -0.00698177    -0.00561460    -0.01432547
     0.00511847     0.00476251     0.01381029
    -0.00001465     0.00052316     0.00018567
     0.00010065     0.00063110    -0.00002766
    -0.00062734     0.00046095     0.00016944
     0.02738364     0.02330413     0.02147764
    -0.02307437    -0.03204978    -0.01713821
    -0.00242238     0.00417914    -0.00053822
    -0.00347556     0.00375855    -0.00035494
     0.00379890    -0.00762198     0.01892826
    -0.00163715    -0.00254626    -0.00037080
     0.00109016     0.01210315    -0.02203926
    -0.00104266     0.00010722     0.00055816
     0.00178406    -0.00199729    -0.00033490

 G vector - GDV
    -0.00813231    -0.00530323    -0.02085121
     0.01497603     0.01656377     0.01660809
     0.00044479     0.00003250    -0.00017672
    -0.00068016     0.00000951    -0.00071656
    -0.00133184    -0.00014737     0.00017326
    -0.00692526    -0.02589721    -0.00118318
     0.00390905     0.00390607     0.01507797
    -0.00137364     0.00044885    -0.00063224
    -0.00133117     0.00062237     0.00197439
    -0.00538787    -0.00880950     0.03835008
    -0.00157564    -0.00395764     0.00003072
     0.00476500     0.02422005    -0.04942275
    -0.00173491    -0.00097275     0.00065661
     0.00437793    -0.00071543     0.00011155

 H vector - DCV - non-adiabatic coupling
    -0.05243018    -0.04209934    -0.10779375
     0.03890391     0.03633441     0.10373649
    -0.00008612     0.00389883     0.00137398
     0.00071457     0.00470177    -0.00024313
    -0.00474217     0.00342617     0.00127118
     0.20363116     0.17226005     0.15993255
    -0.17168608    -0.23854688    -0.12688791
    -0.01811617     0.03115496    -0.00404207
    -0.02595939     0.02803086    -0.00254191
     0.02802044    -0.05723430     0.14298670
    -0.01227718    -0.01917268    -0.00276062
     0.00836751     0.09141326    -0.16673438
    -0.00785684     0.00074837     0.00419185
     0.01351654    -0.01491549    -0.00248900
--------------------------------------------------
 
 
--------------------------------------------------------------------------------
DFTB+ running times                          cpu [s]             wall clock [s]
--------------------------------------------------------------------------------
Global initialisation                  +     0.01  (  3.4%)      0.01  (  6.6%)
SCC                                    +     0.09  ( 55.4%)      0.10  ( 56.0%)
  Diagonalisation                            0.01  (  3.1%)      0.02  (  8.6%)
      Dense to sparse                        0.02  (  9.4%)      0.02  (  8.7%)
  Density matrix creation                    0.01  (  6.3%)      0.01  (  5.9%)
Post-SCC processing                    +     0.07  ( 40.5%)      0.07  ( 36.6%)
  Force calculation                          0.07  ( 40.2%)      0.07  ( 36.5%)
--------------------------------------------------------------------------------
Missing                                +     0.00  (  0.7%)      0.00  (  0.7%)
Total                                  =     0.17  (100.0%)      0.18  (100.0%)
--------------------------------------------------------------------------------
