     6
  Step:   943            Position(A)                                  Velocity(au)
C         1.44126172     2.31788985     2.28301200     0.00082479    -0.00010369     0.00013818
N         2.83187982     2.11337377     2.21028658    -0.00065380    -0.00011645     0.00003649
H         0.97052917     1.39655642     1.89308909    -0.00065664    -0.00079612    -0.00003721
H         1.14043936     3.07130466     1.53537414     0.00162207     0.00057524    -0.00125623
H         3.38975958     1.93982621     1.35231688    -0.00057381     0.00185932    -0.00060994
H         3.38101756     2.30464882     3.07385909    -0.00113441     0.00121533    -0.00025020
     6
  Step:   944            Position(A)                                  Velocity(au)
C         1.44351721     2.31760630     2.28338987     0.00081809    -0.00010465     0.00015121
N         2.83009192     2.11305533     2.21038636    -0.00064869    -0.00011184     0.00003791
H         0.96873351     1.39437933     1.89298732    -0.00065529    -0.00083106    -0.00013008
H         1.14487508     3.07287770     1.53193883     0.00166420     0.00059334    -0.00129570
H         3.38819042     1.94491073     1.35064892    -0.00061139     0.00181342    -0.00059298
H         3.37791539     2.30797227     3.07317489    -0.00113142     0.00122548    -0.00030983
     6
  Step:   945            Position(A)                                  Velocity(au)
C         1.44575437     2.31732012     2.28380337     0.00081068    -0.00010579     0.00016389
N         2.82831799     2.11274949     2.21049001    -0.00064322    -0.00010726     0.00003925
H         0.96694153     1.39210672     1.89263161    -0.00065112    -0.00086193    -0.00022633
H         1.14942602     3.07450026     1.52839559     0.00170581     0.00061056    -0.00132824
H         3.38651850     1.94986973     1.34902735    -0.00065012     0.00176213    -0.00057398
H         3.37482139     2.31132347     3.07232763    -0.00112632     0.00124028    -0.00036977
     6
  Step:   946            Position(A)                                  Velocity(au)
C         1.44797128     2.31703083     2.28425154     0.00080249    -0.00010707     0.00017620
N         2.82655903     2.11245619     2.21059734    -0.00063733    -0.00010271     0.00004050
H         0.96516097     1.38974966     1.89201268    -0.00064407    -0.00088855    -0.00032546
H         1.15409075     3.07616991     1.52476337     0.00174685     0.00062662    -0.00135413
H         3.38474067     1.95468847     1.34745773    -0.00068984     0.00170583    -0.00055311
H         3.37174134     2.31471517     3.07131646    -0.00111892     0.00125928    -0.00042966
     6
  Step:   947            Position(A)                                  Velocity(au)
C         1.45016579     2.31673802     2.28473338     0.00079344    -0.00010849     0.00018811
N         2.82481618     2.11217532     2.21070809    -0.00063098    -0.00009820     0.00004165
H         0.96339969     1.38731982     1.89112268    -0.00063408    -0.00091069    -0.00042689
H         1.15886770     3.07788348     1.52106036     0.00178724     0.00064124    -0.00137369
H         3.38285422     1.95935326     1.34594518    -0.00073036     0.00164493    -0.00053055
H         3.36868152     2.31815882     3.07014150    -0.00110904     0.00128198    -0.00048917
     6
  Step:   948            Position(A)                                  Velocity(au)
C         1.45233553     2.31644134     2.28524779     0.00078343    -0.00011002     0.00019962
N         2.82309068     2.11190678     2.21082197    -0.00062414    -0.00009374     0.00004268
H         0.96166573     1.38482942     1.88995530    -0.00062109    -0.00092817    -0.00053007
H         1.16375510     3.07963701     1.51730385     0.00182691     0.00065414    -0.00138726
H         3.38085697     1.96385152     1.34449432    -0.00077149     0.00157986    -0.00050648
H         3.36564873     2.32166456     3.06880382    -0.00109649     0.00130789    -0.00054790
     6
  Step:   949            Position(A)                                  Velocity(au)
C         1.45447792     2.31614047     2.28579367     0.00077241    -0.00011164     0.00021070
N         2.82138390     2.11165043     2.21093867    -0.00061676    -0.00008934     0.00004357
H         0.95996728     1.38229124     1.88850576    -0.00060506    -0.00094079    -0.00063443
H         1.16875099     3.08142583     1.51351022     0.00186577     0.00066505    -0.00139522
H         3.37874725     1.96817182     1.34310930    -0.00081300     0.00151105    -0.00048111
H         3.36265025     2.32524114     3.06730553    -0.00108111     0.00133651    -0.00060547
     6
  Step:   950            Position(A)                                  Velocity(au)
C         1.45659016     2.31583518     2.28636986     0.00076031    -0.00011333     0.00022134
N         2.81969730     2.11140612     2.21105783    -0.00060881    -0.00008500     0.00004433
H         0.95831266     1.37971855     1.88677084    -0.00058595    -0.00094837    -0.00073939
H         1.17385316     3.08324449     1.50969484     0.00190376     0.00067372    -0.00139793
H         3.37652401     1.97230397     1.34179366    -0.00085468     0.00143897    -0.00045465
H         3.35969383     2.32889598     3.06564980    -0.00106276     0.00136733    -0.00066152
     6
  Step:   951            Position(A)                                  Velocity(au)
C         1.45866931     2.31552527     2.28697514     0.00074707    -0.00011506     0.00023153
N         2.81803244     2.11117367     2.21117904    -0.00060027    -0.00008074     0.00004492
H         0.95671031     1.37712512     1.88474891    -0.00056373    -0.00095079    -0.00084437
H         1.17905922     3.08508686     1.50587204     0.00194079     0.00067990    -0.00139581
H         3.37418680     1.97623901     1.34055037    -0.00089628     0.00136411    -0.00042734
H         3.35678759     2.33263509     3.06384079    -0.00104130     0.00139985    -0.00071566
     6
  Step:   952            Position(A)                                  Velocity(au)
C         1.46071225     2.31521063     2.28760829     0.00073265    -0.00011682     0.00024126
N         2.81639094     2.11095287     2.21130188    -0.00059112    -0.00007656     0.00004535
H         0.95516872     1.37452507     1.88243990    -0.00053840    -0.00094792    -0.00094880
H         1.18436655     3.08694611     1.50205504     0.00197679     0.00068335    -0.00138930
H         3.37173581     1.97996932     1.33938177    -0.00093759     0.00128695    -0.00039942
H         3.35394002     2.33646313     3.06188375    -0.00101664     0.00143358    -0.00076751
     6
  Step:   953            Position(A)                                  Velocity(au)
C         1.46271576     2.31489118     2.28826804     0.00071701    -0.00011858     0.00025052
N         2.81477445     2.11074350     2.21142589    -0.00058135    -0.00007248     0.00004559
H         0.95369641     1.37193287     1.87984531    -0.00050996    -0.00093968    -0.00105211
H         1.18977231     3.08881482     1.49825585     0.00201168     0.00068389    -0.00137884
H         3.36917187     1.98348862     1.33828949    -0.00097835     0.00120801    -0.00037116
H         3.35115989     2.34038341     3.05978490    -0.00098870     0.00146801    -0.00081674
     6
  Step:   954            Position(A)                                  Velocity(au)
C         1.46467651     2.31456691     2.28895313     0.00070015    -0.00012033     0.00025932
N         2.81318468     2.11054529     2.21155057    -0.00057095    -0.00006851     0.00004566
H         0.95230187     1.36936322     1.87696819    -0.00047845    -0.00092601    -0.00115375
H         1.19527348     3.09068501     1.49448526     0.00204540     0.00068133    -0.00136493
H         3.36649646     1.98679205     1.33727451    -0.00101834     0.00112782    -0.00034282
H         3.34845617     2.34439786     3.05755144    -0.00095743     0.00150267    -0.00086300
     6
  Step:   955            Position(A)                                  Velocity(au)
C         1.46659114     2.31423787     2.28966226     0.00068203    -0.00012204     0.00026764
N         2.81162335     2.11035795     2.21167542    -0.00055993    -0.00006465     0.00004553
H         0.95099349     1.36683095     1.87381314    -0.00044394    -0.00090690    -0.00125316
H         1.20086686     3.09254818     1.49075271     0.00207788     0.00067551    -0.00134806
H         3.36371168     1.98987621     1.33633703    -0.00105733     0.00104694    -0.00031467
H         3.34583798     2.34850709     3.05519148    -0.00092280     0.00153707    -0.00090598
     6
  Step:   956            Position(A)                                  Velocity(au)
C         1.46845623     2.31390415     2.29039413     0.00066267    -0.00012369     0.00027548
N         2.81009217     2.11018115     2.21179993    -0.00054828    -0.00006092     0.00004521
H         0.94977949     1.36435094     1.87038623    -0.00040650    -0.00088238    -0.00134982
H         1.20654906     3.09439543     1.48706630     0.00210907     0.00066630    -0.00132876
H         3.36082029     1.99273918     1.33547653    -0.00109510     0.00096591    -0.00028698
H         3.34331448     2.35271037     3.05271397    -0.00088482     0.00157072    -0.00094541
     6
  Step:   957            Position(A)                                  Velocity(au)
C         1.47026837     2.31356590     2.29114748     0.00064208    -0.00012527     0.00028287
N         2.80859284     2.11001455     2.21192356    -0.00053602    -0.00005734     0.00004470
H         0.94866786     1.36193798     1.86669500    -0.00036625    -0.00085251    -0.00144319
H         1.21231656     3.09621750     1.48343266     0.00213892     0.00065360    -0.00130757
H         3.35782561     1.99538057     1.33469174    -0.00113144     0.00088531    -0.00026004
H         3.34089483     2.35700569     3.05012864    -0.00084354     0.00160316    -0.00098104
     6
  Step:   958            Position(A)                                  Velocity(au)
C         1.47202420     2.31322332     2.29192101     0.00062027    -0.00012677     0.00028979
N         2.80712704     2.10985776     2.21204580    -0.00052317    -0.00005390     0.00004400
H         0.94766631     1.35960670     1.86274842    -0.00032334    -0.00081739    -0.00153279
H         1.21816569     3.09800483     1.47985697     0.00216738     0.00063732    -0.00128506
H         3.35473156     1.99780154     1.33398062    -0.00116615     0.00080572    -0.00023413
H         3.33858809     2.36138971     3.04744589    -0.00079901     0.00163391    -0.00101265
     6
  Step:   959            Position(A)                                  Velocity(au)
C         1.47372041     2.31287666     2.29271347     0.00059729    -0.00012815     0.00029626
N         2.80569638     2.10971036     2.21216613    -0.00050974    -0.00005062     0.00004313
H         0.94678211     1.35737146     1.85855682    -0.00027792    -0.00077717    -0.00161813
H         1.22409265     3.09974767     1.47634282     0.00219443     0.00061742    -0.00126181
H         3.35154260     2.00000488     1.33334037    -0.00119905     0.00072774    -0.00020953
H         3.33640311     2.36585783     3.04467667    -0.00075133     0.00166253    -0.00104007
     6
  Step:   960            Position(A)                                  Velocity(au)
C         1.47550000     2.31249485     2.29359615     0.00062501    -0.00014111     0.00032962
N         2.80417766     2.10955954     2.21229463    -0.00054059    -0.00005181     0.00004588
H         0.94595406     1.35505595     1.85373571    -0.00025101    -0.00079819    -0.00185236
H         1.23063079     3.10158722     1.47258334     0.00242077     0.00064754    -0.00135039
H         3.34797011     2.00217313     1.33271610    -0.00134121     0.00071092    -0.00020337
H         3.33416458     2.37081121     3.04157786    -0.00076397     0.00184123    -0.00115928
     6
  Step:   961            Position(A)                                  Velocity(au)
C         1.47720915     2.31210896     2.29449754     0.00059982    -0.00014224     0.00033525
N         2.80269936     2.10941785     2.21242010    -0.00052611    -0.00004890     0.00004468
H         0.94526764     1.35287321     1.84867021    -0.00020110    -0.00074813    -0.00192789
H         1.23725065     3.10335800     1.46889053     0.00244515     0.00062017    -0.00132762
H         3.34430240     2.00411721     1.33215997    -0.00137015     0.00063811    -0.00018229
H         3.33207540     2.37584627     3.03840766    -0.00071030     0.00186433    -0.00117789
     6
  Step:   962            Position(A)                                  Velocity(au)
C         1.47884943     2.31171999     2.29541430     0.00057364    -0.00014324     0.00034049
N         2.80126064     2.10928413     2.21254228    -0.00051121    -0.00004620     0.00004333
H         0.94471770     1.35082736     1.84339818    -0.00014921    -0.00069330    -0.00199784
H         1.24393719     3.10505393     1.46526001     0.00246849     0.00058892    -0.00130627
H         3.34055556     2.00586219     1.33166148    -0.00139703     0.00056912    -0.00016352
H         3.33013300     2.38094450     3.03518658    -0.00065381     0.00188413    -0.00119188
     6
  Step:   963            Position(A)                                  Velocity(au)
C         1.48041812     2.31132828     2.29634542     0.00054653    -0.00014409     0.00034539
N         2.79986267     2.10915779     2.21266078    -0.00049591    -0.00004373     0.00004186
H         0.94430967     1.34893144     1.83793486    -0.00009558    -0.00063393    -0.00206187
H         1.25068756     3.10666441     1.46168787     0.00249079     0.00055381    -0.00128696
H         3.33673523     2.00741851     1.33121431    -0.00142177     0.00050454    -0.00014731
H         3.32834509     2.38609687     3.03192725    -0.00059463     0.00190021    -0.00120124
     6
  Step:   964            Position(A)                                  Velocity(au)
C         1.48191268     2.31093425     2.29728992     0.00051855    -0.00014478     0.00034994
N         2.79850654     2.10903821     2.21277525    -0.00048022    -0.00004148     0.00004029
H         0.94404829     1.34719788     1.83229645    -0.00004047    -0.00057026    -0.00211964
H         1.25749892     3.10817887     1.45816854     0.00251207     0.00051485    -0.00127030
H         3.33284724     2.00879824     1.33081148    -0.00144434     0.00044496    -0.00013388
H         3.32671900     2.39129321     3.02864231    -0.00053294     0.00191218    -0.00120600
     6
  Step:   965            Position(A)                                  Velocity(au)
C         1.48333071     2.31053832     2.29824686     0.00048973    -0.00014531     0.00035416
N         2.79719332     2.10892477     2.21288544    -0.00046417    -0.00003948     0.00003866
H         0.94393762     1.34563845     1.82650005     0.00001583    -0.00050253    -0.00217083
H         1.26436846     3.10958678     1.45469476     0.00253231     0.00047207    -0.00125690
H         3.32889752     2.01001505     1.33044536    -0.00146473     0.00039096    -0.00012346
H         3.32526163     2.39652227     3.02534436    -0.00046889     0.00191963    -0.00120621
     6
  Step:   966            Position(A)                                  Velocity(au)
C         1.48466994     2.31014095     2.29921535     0.00046016    -0.00014566     0.00035806
N         2.79592401     2.10881682     2.21299116    -0.00044775    -0.00003772     0.00003698
H         0.94398091     1.34426423     1.82056368     0.00007302    -0.00043100    -0.00221511
H         1.27129334     3.11087772     1.45125762     0.00255148     0.00042553    -0.00124732
H         3.32489204     2.01108417     1.33010775    -0.00148293     0.00034311    -0.00011623
H         3.32397940     2.40177172     3.02204585    -0.00040267     0.00192219    -0.00120193
     6
  Step:   967            Position(A)                                  Velocity(au)
C         1.48592829     2.30974263     2.30019452     0.00042987    -0.00014582     0.00036165
N         2.79469957     2.10871368     2.21309228    -0.00043100    -0.00003621     0.00003529
H         0.94418060     1.34308561     1.81450621     0.00013078    -0.00035595    -0.00225218
H         1.27827065     3.11204139     1.44784669     0.00256954     0.00037528    -0.00124209
H         3.32083678     2.01202244     1.32978991    -0.00149895     0.00030196    -0.00011239
H         3.32287826     2.40702816     3.01875904    -0.00033444     0.00191946    -0.00119327
     6
  Step:   968            Position(A)                                  Velocity(au)
C         1.48710383     2.30934387     2.30118350     0.00039894    -0.00014578     0.00036492
N         2.79352095     2.10861466     2.21318880    -0.00041391    -0.00003495     0.00003364
H         0.94453825     1.34211222     1.80834736     0.00018878    -0.00027765    -0.00228173
H         1.28529736     3.11306765     1.44445006     0.00258641     0.00032140    -0.00124170
H         3.31673772     2.01284818     1.32948256    -0.00151281     0.00026803    -0.00011212
H         3.32196370     2.41227715     3.01549592    -0.00026438     0.00191108    -0.00118033
     6
  Step:   969            Position(A)                                  Velocity(au)
C         1.48819478     2.30894522     2.30218141     0.00036741    -0.00014553     0.00036786
N         2.79238908     2.10851908     2.21328078    -0.00039647    -0.00003396     0.00003205
H         0.94505447     1.34135295     1.80210770     0.00024663    -0.00019639    -0.00230345
H         1.29237019     3.11394654     1.44105449     0.00260194     0.00026395    -0.00124658
H         3.31260077     2.01358115     1.32917596    -0.00152451     0.00024184    -0.00011556
H         3.32124072     2.41750320     3.01226817    -0.00019267     0.00189666    -0.00116323
     6
  Step:   970            Position(A)                                  Velocity(au)
C         1.48919950     2.30854725     2.30318737     0.00033533    -0.00014505     0.00037044
N         2.79130489     2.10842621     2.21336843    -0.00037867    -0.00003323     0.00003057
H         0.94572892     1.34081590     1.79580865     0.00030398    -0.00011246    -0.00231701
H         1.29948548     3.11466835     1.43764558     0.00261594     0.00020305    -0.00125705
H         3.30843182     2.01424247     1.32885996    -0.00153407     0.00022381    -0.00012284
H         3.32071384     2.42268985     3.00908718    -0.00011949     0.00187586    -0.00114211
     6
  Step:   971            Position(A)                                  Velocity(au)
C         1.49011651     2.30815059     2.30420038     0.00030276    -0.00014434     0.00037263
N         2.79026936     2.10833533     2.21345202    -0.00036051    -0.00003277     0.00002924
H         0.94656020     1.34050836     1.78947252     0.00036042    -0.00002618    -0.00232209
H         1.30663905     3.11522362     1.43420802     0.00262814     0.00013882    -0.00127338
H         3.30423674     2.01485450     1.32852405    -0.00154146     0.00021435    -0.00013405
H         3.32038710     2.42781961     3.00596396    -0.00004501     0.00184832    -0.00111708
     6
  Step:   972            Position(A)                                  Velocity(au)
C         1.49094442     2.30775589     2.30521938     0.00026973    -0.00014336     0.00037438
N         2.78928352     2.10824572     2.21353198    -0.00034194    -0.00003258     0.00002810
H         0.94754580     1.34043678     1.78312251     0.00041551     0.00006212    -0.00231834
H         1.31382599     3.11560323     1.43072582     0.00263818     0.00007140    -0.00129569
H         3.30002145     2.01544066     1.32815746    -0.00154664     0.00021377    -0.00014928
H         3.32026401     2.43287406     3.00290916     0.00003055     0.00181370    -0.00108830
     6
  Step:   973            Position(A)                                  Velocity(au)
C         1.49168203     2.30736385     2.30624317     0.00023630    -0.00014210     0.00037562
N         2.78834844     2.10815664     2.21360882    -0.00032294    -0.00003265     0.00002719
H         0.94868207     1.34060666     1.77678273     0.00046882     0.00015206    -0.00230542
H         1.32104039     3.11579847     1.42718261     0.00264561     0.00000098    -0.00132396
H         3.29579197     2.01602523     1.32774925    -0.00154954     0.00022230    -0.00016853
H         3.32034755     2.43783383     2.99993309     0.00010698     0.00177167    -0.00105588
     6
  Step:   974            Position(A)                                  Velocity(au)
C         1.49232823     2.30697526     2.30727035     0.00020253    -0.00014054     0.00037627
N         2.78746533     2.10806735     2.21368317    -0.00030347    -0.00003298     0.00002656
H         0.94996411     1.34102249     1.77047829     0.00051985     0.00024321    -0.00228297
H         1.32827513     3.11580115     1.42356208     0.00264989    -0.00007219    -0.00135805
H         3.29155457     2.01663315     1.32728839    -0.00155003     0.00024008    -0.00019178
H         3.32064009     2.44267866     2.99704565     0.00018400     0.00172194    -0.00101998
     6
  Step:   975            Position(A)                                  Velocity(au)
C         1.49288208     2.30659094     2.30829931     0.00016848    -0.00013864     0.00037624
N         2.78663547     2.10797715     2.21375580    -0.00028349    -0.00003357     0.00002624
H         0.95138570     1.34168758     1.76423524     0.00056810     0.00033508    -0.00225066
H         1.33552155     3.11560373     1.41984833     0.00265034    -0.00014782    -0.00139762
H         3.28731583     2.01728966     1.32676394    -0.00154792     0.00026707    -0.00021895
H         3.32114326     2.44738751     2.99425640     0.00026132     0.00166426    -0.00098074
     6
  Step:   976            Position(A)                                  Velocity(au)
C         1.49334280     2.30621181     2.30932820     0.00013423    -0.00013638     0.00037542
N         2.78586024     2.10788535     2.21382755    -0.00026296    -0.00003440     0.00002626
H         0.95293923     1.34260390     1.75808056     0.00061303     0.00042709    -0.00220816
H         1.34276921     3.11519951     1.41602638     0.00264624    -0.00022552    -0.00144214
H         3.28308286     2.01802001     1.32616519    -0.00154299     0.00030314    -0.00024988
H         3.32185786     2.45193863     2.99157447     0.00033854     0.00159844    -0.00093831
     6
  Step:   977            Position(A)                                  Velocity(au)
C         1.49370986     2.30583887     2.31035483     0.00009988    -0.00013371     0.00037370
N         2.78514113     2.10779127     2.21389936    -0.00024188    -0.00003546     0.00002665
H         0.95461562     1.34377182     1.75204208     0.00065407     0.00051855    -0.00215526
H         1.35000565     3.11458281     1.41208268     0.00263676    -0.00030482    -0.00149088
H         3.27886336     2.01884898     1.32548186    -0.00153496     0.00034793    -0.00028431
H         3.32278362     2.45630975     2.98900854     0.00041520     0.00152438    -0.00089291
     6
  Step:   978            Position(A)                                  Velocity(au)
C         1.49398298     2.30547322     2.31137675     0.00006556    -0.00013061     0.00037094
N         2.78447969     2.10769430     2.21397225    -0.00022021    -0.00003671     0.00002743
H         0.95640425     1.34518985     1.74614827     0.00069067     0.00060869    -0.00209182
H         1.35721616     3.11374924     1.40800570     0.00262104    -0.00038518    -0.00154291
H         3.27466583     2.01980042     1.32470439    -0.00152352     0.00040089    -0.00032188
H         3.32391904     2.46047835     2.98656677     0.00049077     0.00144212    -0.00084476
     6
  Step:   979            Position(A)                                  Velocity(au)
C         1.49416226     2.30511605     2.31239113     0.00003143    -0.00012705     0.00036705
N         2.78387750     2.10759392     2.21404726    -0.00019799    -0.00003813     0.00002860
H         0.95829296     1.34685438     1.74042796     0.00072226     0.00069661    -0.00201787
H         1.36438371     3.11269593     1.40378643     0.00259826    -0.00046591    -0.00159708
H         3.27049960     2.02089669     1.32382416    -0.00150833     0.00046124    -0.00036214
H         3.32526110     2.46442200     2.98425667     0.00056458     0.00135185    -0.00079416
     6
  Step:   980            Position(A)                                  Velocity(au)
C         1.49426242     2.30471119     2.31356080    -0.00000269    -0.00014372     0.00042291
N         2.78324656     2.10747241     2.21413842    -0.00020479    -0.00004637     0.00003524
H         0.96059461     1.34907427     1.73399760     0.00087447     0.00091301    -0.00225958
H         1.37266362     3.11121120     1.39869701     0.00300041    -0.00063833    -0.00193050
H         3.26569300     2.02236655     1.32267014    -0.00174006     0.00061696    -0.00047266
H         3.32706025     2.46872996     2.98172590     0.00074309     0.00146533    -0.00086645
     6
  Step:   981            Position(A)                                  Velocity(au)
C         1.49425506     2.30431816     2.31471729    -0.00003593    -0.00013917     0.00041652
N         2.78268654     2.10734561     2.21423480    -0.00018157    -0.00004804     0.00003722
H         0.96298596     1.35157100     1.72781852     0.00089463     0.00099398    -0.00216546
H         1.38086858     3.10946561     1.39341784     0.00296190    -0.00071808    -0.00198600
H         3.26093461     2.02405370     1.32137760    -0.00171687     0.00068993    -0.00051698
H         3.32909233     2.47273706     2.97935648     0.00081160     0.00136007    -0.00081213
     6
  Step:   982            Position(A)                                  Velocity(au)
C         1.49415681     2.30393759     2.31585632    -0.00006841    -0.00013410     0.00040888
N         2.78219002     2.10721424     2.21433659    -0.00015798    -0.00004982     0.00003964
H         0.96543242     1.35428915     1.72189684     0.00090833     0.00107022    -0.00206209
H         1.38896823     3.10750192     1.38798691     0.00291548    -0.00079662    -0.00204127
H         3.25623964     2.02594040     1.31996386    -0.00168984     0.00076855    -0.00056286
H         3.33131175     2.47645632     2.97713561     0.00087656     0.00124810    -0.00075681
     6
  Step:   983            Position(A)                                  Velocity(au)
C         1.49396974     2.30357087     2.31697444    -0.00009994    -0.00012853     0.00039995
N         2.78175801     2.10707801     2.21444498    -0.00013413    -0.00005164     0.00004244
H         0.96791636     1.35721578     1.71625783     0.00091536     0.00114084    -0.00195028
H         1.39694094     3.10532347     1.38240482     0.00286086    -0.00087325    -0.00209486
H         3.25161859     2.02804208     1.31842466    -0.00165881     0.00085141    -0.00060954
H         3.33370881     2.47986941     2.97506602     0.00093730     0.00113024    -0.00070094
     6
  Step:   984            Position(A)                                  Velocity(au)
C         1.49369645     2.30321938     2.31806815    -0.00013031    -0.00012246     0.00038975
N         2.78139122     2.10693679     2.21456104    -0.00011013    -0.00005346     0.00004558
H         0.97041953     1.36033554     1.71092456     0.00091567     0.00120501    -0.00183121
H         1.40476428     3.10293548     1.37667619     0.00279797    -0.00094725    -0.00214524
H         3.24708240     2.03037037     1.31675779    -0.00162369     0.00093688    -0.00065619
H         3.33627198     2.48296018     2.97314922     0.00099317     0.00100756    -0.00064502
     6
  Step:   985            Position(A)                                  Velocity(au)
C         1.49334010     2.30288450     2.31913397    -0.00015933    -0.00011591     0.00037835
N         2.78109007     2.10679058     2.21468568    -0.00008613    -0.00005522     0.00004896
H         0.97292354     1.36363079     1.70591692     0.00090942     0.00126197    -0.00170644
H         1.41241566     3.10034512     1.37080979     0.00272705    -0.00101789    -0.00219083
H         3.24264223     2.03293237     1.31496335    -0.00158451     0.00102301    -0.00070191
H         3.33898790     2.48571546     2.97138534     0.00104355     0.00088145    -0.00058964
     6
  Step:   986            Position(A)                                  Velocity(au)
C         1.49290439     2.30256754     2.32016860    -0.00018682    -0.00010893     0.00036588
N         2.78085454     2.10663958     2.21481957    -0.00006233    -0.00005684     0.00005249
H         0.97541046     1.36708179     1.70125046     0.00089708     0.00131112    -0.00157807
H         1.41987310     3.09756159     1.36481872     0.00264869    -0.00108446    -0.00223005
H         3.23830920     2.03572991     1.31304390    -0.00154142     0.00110756    -0.00074575
H         3.34184160     2.48812587     2.96977291     0.00108795     0.00075366    -0.00053544
     6
  Step:   987            Position(A)                                  Velocity(au)
C         1.49239350     2.30226966     2.32116913    -0.00021264    -0.00010159     0.00035256
N         2.78068410     2.10648414     2.21496313    -0.00003891    -0.00005826     0.00005606
H         0.97786363     1.37066720     1.69693504     0.00087946     0.00135213    -0.00144882
H         1.42711624     3.09459600     1.35872038     0.00256388    -0.00114629    -0.00226138
H         3.23409400     2.03875866     1.31100456    -0.00149476     0.00118790    -0.00078678
H         3.34481671     2.49018684     2.96830868     0.00112606     0.00062640    -0.00048322
     6