     6
  Step:     3            Position(A)                                  Velocity(au)
C         1.51292970     2.28167549     2.19923407    -0.00031177    -0.00006466     0.00004630
N         2.79403123     2.16230373     2.21671835     0.00025355     0.00014767     0.00015162
H         0.99009243     1.66259564     2.93005717    -0.00110446     0.00016221    -0.00026663
H         0.94011418     2.90500329     1.48558967     0.00099456    -0.00014966    -0.00027770
H         3.46278307     2.47725645     1.49954730    -0.00040453    -0.00095636    -0.00079753
H         3.16196327     1.41875138     2.84770434     0.00069285    -0.00033454    -0.00130982
     6
  Step:     4            Position(A)                                  Velocity(au)
C         1.51192441     2.28151592     2.19935972    -0.00042277    -0.00005217     0.00004564
N         2.79485741     2.16269694     2.21714090     0.00035007     0.00014003     0.00015742
H         0.98703085     1.66302656     2.92931788    -0.00113367     0.00015310    -0.00027436
H         0.94287565     2.90455598     1.48482838     0.00102419    -0.00017698    -0.00027986
H         3.46164759     2.47462594     1.49733284    -0.00042573    -0.00096731    -0.00082245
H         3.16386100     1.41784455     2.84406947     0.00069506    -0.00032977    -0.00134774
     6
  Step:     5            Position(A)                                  Velocity(au)
C         1.51061750     2.28139015     2.19948370    -0.00053217    -0.00003996     0.00004509
N         2.79594583     2.16306960     2.21757931     0.00044517     0.00013266     0.00016322
H         0.98389215     1.66343296     2.92855663    -0.00116085     0.00014430    -0.00028265
H         0.94571573     2.90403536     1.48405907     0.00105194    -0.00020319    -0.00028371
H         3.46045465     2.47196599     1.49504915    -0.00044644    -0.00097781    -0.00084819
H         3.16576469     1.41694777     2.84033326     0.00069728    -0.00032731    -0.00138386
     6
  Step:     7            Position(A)                                  Velocity(au)
C         1.50711950     2.28123665     2.19972807    -0.00074463    -0.00001653     0.00004443
N         2.79889104     2.16375643     2.21850357     0.00062976     0.00011883     0.00017473
H         0.97740554     1.66417592     2.92696291    -0.00120920     0.00012776    -0.00030050
H         0.95160924     2.90278767     1.48247552     0.00110087    -0.00025165    -0.00029763
H         3.45790354     2.46656405     1.49026457    -0.00048555    -0.00099681    -0.00090237
H         3.16959134     1.41515707     2.83257771     0.00070234    -0.00033033    -0.00145013
     6
  Step:     8            Position(A)                                  Velocity(au)
C         1.50494131     2.28120698     2.19984936    -0.00084699    -0.00000538     0.00004437
N         2.80073645     2.16407236     2.21898922     0.00071864     0.00011242     0.00018042
H         0.97406849     1.66451449     2.92612853    -0.00123047     0.00012006    -0.00030982
H         0.95464989     2.90206836     1.48164889     0.00112162    -0.00027362    -0.00030829
H         3.45655034     2.46382628     1.48775865    -0.00050353    -0.00100499    -0.00093085
H         3.17151586     1.41424772     2.82856976     0.00070542    -0.00033633    -0.00148002
     6
  Step:     9            Position(A)                                  Velocity(au)
C         1.50248714     2.28120724     2.19997077    -0.00094632     0.00000535     0.00004453
N         2.80282146     2.16437128     2.21949035     0.00080487     0.00010639     0.00018605
H         0.97067581     1.66483255     2.92526845    -0.00124995     0.00011277    -0.00031920
H         0.95774362     2.90129118     1.48078939     0.00113960    -0.00029391    -0.00032183
H         3.45514960     2.46106753     1.48517353    -0.00052022    -0.00101207    -0.00096028
H         3.17344944     1.41331758     2.82448314     0.00070902    -0.00034568    -0.00150764
     6
  Step:    10            Position(A)                                  Velocity(au)
C         1.49989931     2.28122186     2.20009253    -0.00104457     0.00001116     0.00004536
N         2.80502248     2.16466223     2.21999912     0.00089658     0.00011133     0.00020174
H         0.96725769     1.66514092     2.92439557    -0.00138333     0.00008918    -0.00033161
H         0.96085998     2.90048745     1.47990931     0.00117231    -0.00030184    -0.00035044
H         3.45372698     2.45829991     1.48254753    -0.00057003    -0.00109480    -0.00104788
H         3.17538832     1.41237228     2.82036034     0.00075510    -0.00036914    -0.00160649
     6
  Step:    11            Position(A)                                  Velocity(au)
C         1.49704281     2.28125239     2.20021656    -0.00113373     0.00001698     0.00004580
N         2.80747428     2.16496667     2.22055079     0.00098121     0.00011545     0.00021594
H         0.96347481     1.66538479     2.92348875    -0.00150790     0.00006090    -0.00034093
H         0.96406579     2.89966204     1.47895100     0.00118680    -0.00030233    -0.00037967
H         3.45216818     2.45530605     1.47968198    -0.00061503    -0.00116914    -0.00113100
H         3.17745322     1.41136283     2.81596720     0.00079582    -0.00039237    -0.00168713
     6
  Step:    12            Position(A)                                  Velocity(au)
C         1.49394248     2.28129881     2.20034182    -0.00121567     0.00002265     0.00004608
N         2.81015752     2.16528237     2.22114129     0.00106018     0.00011917     0.00022914
H         0.95935129     1.66555133     2.92255645    -0.00162637     0.00002861    -0.00034865
H         0.96731122     2.89883529     1.47791275     0.00118717    -0.00029592    -0.00041053
H         3.45048632     2.45210890     1.47658913    -0.00065647    -0.00123813    -0.00121259
H         3.17962950     1.41028984     2.81135356     0.00083374    -0.00041663    -0.00175351
     6
  Step:    13            Position(A)                                  Velocity(au)
C         1.49061810     2.28136074     2.20046783    -0.00128975     0.00002806     0.00004625
N         2.81305671     2.16560826     2.22176791     0.00113278     0.00012258     0.00024133
H         0.95490380     1.66562956     2.92160303    -0.00173798    -0.00000754    -0.00035543
H         0.97055768     2.89802607     1.47679012     0.00117443    -0.00028236    -0.00044280
H         3.44869112     2.44872309     1.47327317    -0.00069428    -0.00130211    -0.00129289
H         3.18190945     1.40915051     2.80655839     0.00086935    -0.00044189    -0.00180529
     6
  Step:    14            Position(A)                                  Velocity(au)
C         1.48709113     2.28143747     2.20059432    -0.00135738     0.00003320     0.00004642
N         2.81615442     2.16594347     2.22242786     0.00120008     0.00012590     0.00025280
H         0.95015110     1.66560895     2.92063105    -0.00184441    -0.00004766    -0.00036259
H         0.97376928     2.89725393     1.47557924     0.00115125    -0.00026171    -0.00047651
H         3.44679252     2.44516232     1.46973763    -0.00072950    -0.00136347    -0.00137402
H         3.18428679     1.40794211     2.80162163     0.00090439    -0.00046834    -0.00184442
     6
  Step:    15            Position(A)                                  Velocity(au)
C         1.48337923     2.28152826     2.20072126    -0.00141838     0.00003807     0.00004656
N         2.81943618     2.16628777     2.22311917     0.00126176     0.00012912     0.00026352
H         0.94510736     1.66547862     2.91963951    -0.00194459    -0.00009240    -0.00037124
H         0.97691752     2.89653825     1.47427616     0.00111874    -0.00023344    -0.00051049
H         3.44479763     2.44143376     1.46598021    -0.00076238    -0.00142308    -0.00145648
H         3.18675994     1.40666139     2.79657785     0.00093939    -0.00049497    -0.00186979
     6
  Step:    16            Position(A)                                  Velocity(au)
C         1.47950052     2.28163237     2.20084857    -0.00147366     0.00004280     0.00004662
N         2.82288659     2.16664087     2.22383980     0.00131832     0.00013220     0.00027356
H         0.93978964     1.66522595     2.91862431    -0.00203737    -0.00014298    -0.00038345
H         0.97997684     2.89589988     1.47288017     0.00107913    -0.00019688    -0.00054277
H         3.44271282     2.43754218     1.46199729    -0.00079377    -0.00148297    -0.00154171
H         3.18932881     1.40530783     2.79146471     0.00097554    -0.00052004    -0.00188025
     6
  Step:    17            Position(A)                                  Velocity(au)
C         1.47547064     2.28174940     2.20097607    -0.00152200     0.00004758     0.00004644
N         2.82649169     2.16700239     2.22458789     0.00136801     0.00013461     0.00028234
H         0.93421821     1.66483495     2.91757572    -0.00211449    -0.00020038    -0.00040165
H         0.98292784     2.89536149     1.47139590     0.00103418    -0.00015141    -0.00056888
H         3.44054216     2.43348682     1.45778132    -0.00082281    -0.00154193    -0.00162768
H         3.19199653     1.40388572     2.78632295     0.00101196    -0.00053960    -0.00186965
     6
  Step:    18            Position(A)                                  Velocity(au)
C         1.47130855     2.28187953     2.20110308    -0.00156369     0.00005271     0.00004607
N         2.83023268     2.16737048     2.22535998     0.00140982     0.00013561     0.00028905
H         0.92843590     1.66428700     2.91647737    -0.00216367    -0.00026131    -0.00042758
H         0.98575592     2.89494743     1.46984024     0.00098904    -0.00010042    -0.00058565
H         3.43829209     2.42927022     1.45333025    -0.00084709    -0.00159483    -0.00170907
H         3.19476385     1.40241011     2.78121018     0.00104638    -0.00055176    -0.00183428
     6
  Step:    20            Position(A)                                  Velocity(au)
C         1.45773144     2.28233788     2.20150695    -0.00000000     0.00000000     0.00000000
N         2.84244004     2.16853970     2.22785704     0.00000000     0.00000000     0.00000000
H         0.90989866     1.66209009     2.91268695    -0.00000000    -0.00000000    -0.00000000
H         0.99453384     2.89400998     1.46483792     0.00000000    -0.00000000    -0.00000000
H         3.43096991     2.41547412     1.43856614    -0.00000000    -0.00000000    -0.00000000
H         3.20384488     1.39766788     2.76533332     0.00000000    -0.00000000    -0.00000000
     6
  Step:    21            Position(A)                                  Velocity(au)
C         1.45773144     2.28233788     2.20150695    -0.00013782     0.00000632     0.00000409
N         2.84244004     2.16853970     2.22785704     0.00012406     0.00001019     0.00002384
H         0.90989866     1.66209009     2.91268695    -0.00016804    -0.00003885    -0.00004654
H         0.99453384     2.89400998     1.46483792     0.00006236     0.00000946    -0.00005401
H         3.43096991     2.41547412     1.43856614    -0.00007011    -0.00013493    -0.00015913
H         3.20384488     1.39766788     2.76533332     0.00009281    -0.00005225    -0.00011959
     6
  Step:    22            Position(A)                                  Velocity(au)
C         1.45735455     2.28235516     2.20151813    -0.00019971     0.00001032     0.00000617
N         2.84277930     2.16856756     2.22792223     0.00017935     0.00001348     0.00003317
H         0.90943915     1.66198384     2.91255969    -0.00022454    -0.00006580    -0.00007381
H         0.99470437     2.89403585     1.46469022     0.00007296     0.00002578    -0.00008174
H         3.43077818     2.41510514     1.43813099    -0.00009720    -0.00018920    -0.00023539
H         3.20409868     1.39752500     2.76500627     0.00013451    -0.00008062    -0.00014268
     6
  Step:    23            Position(A)                                  Velocity(au)
C         1.45680842     2.28238338     2.20153501    -0.00024680     0.00001393     0.00000799
N         2.84326975     2.16860442     2.22801294     0.00022116     0.00001536     0.00003955
H         0.90882511     1.66180389     2.91235784    -0.00025755    -0.00009055    -0.00009775
H         0.99490390     2.89410634     1.46446671     0.00007229     0.00004394    -0.00010544
H         3.43051238     2.41458776     1.43748729    -0.00011532    -0.00022674    -0.00029556
H         3.20446652     1.39730455     2.76461611     0.00016623    -0.00010565    -0.00014495
     6
  Step:    24            Position(A)                                  Velocity(au)
C         1.45613352     2.28242147     2.20155685    -0.00028832     0.00001741     0.00000978
N         2.84387453     2.16864644     2.22812109     0.00025785     0.00001672     0.00004475
H         0.90812082     1.66155628     2.91209054    -0.00028090    -0.00011443    -0.00012065
H         0.99510159     2.89422649     1.46417839     0.00006682     0.00006292    -0.00012842
H         3.43019702     2.41396773     1.43667906    -0.00012978    -0.00025746    -0.00034966
H         3.20492109     1.39701563     2.76421972     0.00019419    -0.00013031    -0.00013859
     6
  Step:    25            Position(A)                                  Velocity(au)
C         1.45534506     2.28246909     2.20158360    -0.00032602     0.00002079     0.00001160
N         2.84457966     2.16869215     2.22824347     0.00029104     0.00001775     0.00004919
H         0.90735267     1.66124337     2.91176062    -0.00029810    -0.00013741    -0.00014270
H         0.99528431     2.89439856     1.46382720     0.00005848     0.00008206    -0.00015115
H         3.42984212     2.41326367     1.43572286    -0.00014182    -0.00028364    -0.00039944
H         3.20545213     1.39665927     2.76384073     0.00021960    -0.00015486    -0.00012723
     6
  Step:    26            Position(A)                                  Velocity(au)
C         1.45445352     2.28252594     2.20161531    -0.00036076     0.00002405     0.00001345
N         2.84537556     2.16874070     2.22837797     0.00032154     0.00001859     0.00005306
H         0.90653749     1.66086762     2.91137038    -0.00031110    -0.00015951    -0.00016399
H         0.99544424     2.89462296     1.46341388     0.00004835     0.00010096    -0.00017375
H         3.42945429     2.41248803     1.43463054    -0.00015216    -0.00030652    -0.00044577
H         3.20605264     1.39623577     2.76349281     0.00024305    -0.00017930    -0.00011285
     6
  Step:    27            Position(A)                                  Velocity(au)
C         1.45346700     2.28259172     2.20165208    -0.00039121     0.00002709     0.00001525
N         2.84625486     2.16879154     2.22852308     0.00034821     0.00001921     0.00005626
H         0.90568677     1.66043141     2.91092191    -0.00031961    -0.00017998    -0.00018371
H         0.99557645     2.89489904     1.46293873     0.00003689     0.00011884    -0.00019535
H         3.42903820     2.41164980     1.43341153    -0.00016049    -0.00032542    -0.00048688
H         3.20671729     1.39574545     2.76318420     0.00026367    -0.00020258    -0.00009626
     6
  Step:    28            Position(A)                                  Velocity(au)
C         1.45239719     2.28266579     2.20169379    -0.00041977     0.00003004     0.00001709
N         2.84720707     2.16884407     2.22867692     0.00037318     0.00001976     0.00005915
H         0.90481276     1.65993923     2.91041953    -0.00032627    -0.00019979    -0.00020282
H         0.99567733     2.89522401     1.46240451     0.00002484     0.00013610    -0.00021688
H         3.42859932     2.41075991     1.43208011    -0.00016802    -0.00034266    -0.00052564
H         3.20743832     1.39519148     2.76292097     0.00028307    -0.00022554    -0.00007895
     6
  Step:    29            Position(A)                                  Velocity(au)
C         1.45124929     2.28274794     2.20174051    -0.00044496     0.00003279     0.00001887
N         2.84822759     2.16889810     2.22883868     0.00039519     0.00002018     0.00006157
H         0.90392054     1.65939287     2.90986491    -0.00033034    -0.00021825    -0.00022051
H         0.99574526     2.89559618     1.46181143     0.00001241     0.00015209    -0.00023737
H         3.42813986     2.40982286     1.43064269    -0.00017431    -0.00035730    -0.00056015
H         3.20821240     1.39457473     2.76270507     0.00030024    -0.00024711    -0.00006119
     6
  Step:    30            Position(A)                                  Velocity(au)
C         1.45003248     2.28283761     2.20179212    -0.00046868     0.00003548     0.00002067
N         2.84930829     2.16895328     2.22900706     0.00041592     0.00002057     0.00006381
H         0.90301718     1.65879605     2.90926189    -0.00033359    -0.00023626    -0.00023766
H         0.99577920     2.89601208     1.46116232    -0.00000007     0.00016728    -0.00025763
H         3.42766319     2.40884578     1.42911090    -0.00018024    -0.00037106    -0.00059272
H         3.20903344     1.39389898     2.76253776     0.00031645    -0.00026805    -0.00004369
     6
  Step:    31            Position(A)                                  Velocity(au)
C         1.44875082     2.28293465     2.20184863    -0.00048950     0.00003801     0.00002240
N         2.85044567     2.16900953     2.22918156     0.00043412     0.00002087     0.00006568
H         0.90210494     1.65814998     2.90861200    -0.00033521    -0.00025314    -0.00025348
H         0.99577901     2.89646953     1.46045780    -0.00001246     0.00018107    -0.00027671
H         3.42717030     2.40783106     1.42749005    -0.00018535    -0.00038297    -0.00062148
H         3.20989881     1.39316597     2.76241828     0.00033072    -0.00028731    -0.00002660
     6
  Step:    32            Position(A)                                  Velocity(au)
C         1.44741224     2.28303859     2.20190987    -0.00050903     0.00004049     0.00002412
N         2.85163282     2.16906661     2.22936117     0.00045123     0.00002116     0.00006741
H         0.90118826     1.65745775     2.90791883    -0.00033652    -0.00026974    -0.00026877
H         0.99574493     2.89696469     1.45970110    -0.00002463     0.00019395    -0.00029536
H         3.42666343     2.40678378     1.42579053    -0.00019035    -0.00039442    -0.00064844
H         3.21080321     1.39238029     2.76234553     0.00034411    -0.00030562    -0.00001028
     6
  Step:    33            Position(A)                                  Velocity(au)
C         1.44602025     2.28314931     2.20197582    -0.00052592     0.00004282     0.00002575
N         2.85286677     2.16912447     2.22954552     0.00046607     0.00002136     0.00006884
H         0.90026801     1.65672012     2.90718385    -0.00033674    -0.00028538    -0.00028279
H         0.99567759     2.89749508     1.45889340    -0.00003641     0.00020534    -0.00031266
H         3.42614291     2.40570521     1.42401731    -0.00019477    -0.00040444    -0.00067180
H         3.21174422     1.39154455     2.76231741     0.00035570    -0.00032198     0.00000514
     6
  Step:    34            Position(A)                                  Velocity(au)
C         1.44458205     2.28326641     2.20204623    -0.00054165     0.00004513     0.00002735
N         2.85414129     2.16918287     2.22973377     0.00047993     0.00002154     0.00007015
H         0.89934716     1.65593972     2.90641054    -0.00033692    -0.00030086    -0.00029628
H         0.99557802     2.89805661     1.45803840    -0.00004780     0.00021572    -0.00032933
H         3.42561028     2.40459921     1.42218019    -0.00019923    -0.00041424    -0.00069337
H         3.21271692     1.39066404     2.76233148     0.00036643    -0.00033713     0.00001953
     6
  Step:    35            Position(A)                                  Velocity(au)
C         1.44310086     2.28338982     2.20212103    -0.00055362     0.00004720     0.00002879
N         2.85545372     2.16924178     2.22992560     0.00049055     0.00002160     0.00007102
H         0.89842580     1.65511698     2.90560034    -0.00033555    -0.00031476    -0.00030780
H         0.99544730     2.89864653     1.45713781    -0.00005848     0.00022402    -0.00034367
H         3.42506547     2.40346642     1.42028409    -0.00020280    -0.00042190    -0.00070979
H         3.21371897     1.38974212     2.76238488     0.00037456    -0.00034931     0.00003265
     6
  Step:    36            Position(A)                                  Velocity(au)
C         1.44158691     2.28351890     2.20219976    -0.00056456     0.00004926     0.00003017
N         2.85679518     2.16930084     2.23011981     0.00050031     0.00002163     0.00007180
H         0.89750820     1.65425624     2.90475863    -0.00033437    -0.00032856    -0.00031880
H         0.99528737     2.89925913     1.45619800    -0.00006862     0.00023124    -0.00035722
H         3.42451090     2.40231268     1.41834307    -0.00020650    -0.00042951    -0.00072447
H         3.21474324     1.38878690     2.76247417     0.00038188    -0.00036008     0.00004453
     6
  Step:    37            Position(A)                                  Velocity(au)
C         1.44004305     2.28365361     2.20228227    -0.00057446     0.00005131     0.00003151
N         2.85816334     2.16935998     2.23031614     0.00050923     0.00002162     0.00007248
H         0.89659383     1.65335775     2.90388683    -0.00033337    -0.00034230    -0.00032928
H         0.99509972     2.89989150     1.45522113    -0.00007820     0.00023737    -0.00036990
H         3.42394622     2.40113813     1.41636193    -0.00021033    -0.00043709    -0.00073734
H         3.21578754     1.38780223     2.76259593     0.00038838    -0.00036936     0.00005514
     6
  Step:    38            Position(A)                                  Velocity(au)
C         1.43847213     2.28379394     2.20236843    -0.00058088     0.00005314     0.00003265
N         2.85955587     2.16941911     2.23051435     0.00051513     0.00002150     0.00007276
H         0.89568220     1.65242168     2.90298637    -0.00033116    -0.00035450    -0.00033782
H         0.99488588     2.90054062     1.45420959    -0.00008682     0.00024136    -0.00038004
H         3.42337103     2.39994286     1.41434560    -0.00021342    -0.00044276    -0.00074522
H         3.21684960     1.38679218     2.76274671     0.00039239    -0.00037550     0.00006421
     6
  Step:    39            Position(A)                                  Velocity(au)
C         1.43688365     2.28393926     2.20245771    -0.00058514     0.00005486     0.00003365
N         2.86096456     2.16947790     2.23071332     0.00051919     0.00002129     0.00007281
H         0.89477660     1.65145227     2.90206256    -0.00032854    -0.00036586    -0.00034512
H         0.99464845     2.90120064     1.45317032    -0.00009461     0.00024371    -0.00038838
H         3.42278741     2.39873208     1.41230771    -0.00021622    -0.00044752    -0.00074976
H         3.21792263     1.38576532     2.76292230     0.00039479    -0.00037930     0.00007181
     6
  Step:    40            Position(A)                                  Velocity(au)
C         1.43625372     2.28399832     2.20249393    -0.00023994     0.00002306     0.00001410
N         2.86152349     2.16950082     2.23079170     0.00021304     0.00000858     0.00002967
H         0.89442292     1.65105840     2.90169103    -0.00013300    -0.00015377    -0.00014348
H         0.99454660     2.90146301     1.45275221    -0.00004147     0.00009987    -0.00016133
H         3.42255464     2.39825030     1.41150056    -0.00008936    -0.00018441    -0.00030683
H         3.21834764     1.38535698     2.76299960     0.00016163    -0.00015556     0.00003184
     6
  Step:    41            Position(A)                                  Velocity(au)
C         1.43559756     2.28406139     2.20253249    -0.00024105     0.00002462     0.00001488
N         2.86210606     2.16952429     2.23087284     0.00021440     0.00000825     0.00002937
H         0.89405923     1.65063791     2.90129867    -0.00012994    -0.00016391    -0.00014892
H         0.99443318     2.90173612     1.45231103    -0.00004782     0.00009964    -0.00016679
H         3.42231027     2.39774601     1.41066150    -0.00009180    -0.00018791    -0.00030629
H         3.21878964     1.38493158     2.76308666     0.00016164    -0.00015564     0.00003698
     6
  Step:    42            Position(A)                                  Velocity(au)
C         1.43493838     2.28412871     2.20257319    -0.00024034     0.00002591     0.00001549
N         2.86269236     2.16954686     2.23095315     0.00021414     0.00000789     0.00002889
H         0.89370389     1.65018969     2.90089144    -0.00012647    -0.00017228    -0.00015289
H         0.99430242     2.90200859     1.45185492    -0.00005312     0.00009840    -0.00017043
H         3.42205923     2.39723214     1.40982393    -0.00009357    -0.00019006    -0.00030334
H         3.21923166     1.38450597     2.76318777     0.00016041    -0.00015419     0.00004100
     6
  Step:    43            Position(A)                                  Velocity(au)
C         1.43428115     2.28419957     2.20261555    -0.00024068     0.00002726     0.00001611
N         2.86327795     2.16956843     2.23103217     0.00021481     0.00000757     0.00002858
H         0.89335806     1.64971856     2.90047334    -0.00012404    -0.00018097    -0.00015724
H         0.99415715     2.90227768     1.45138886    -0.00005806     0.00009733    -0.00017431
H         3.42180336     2.39671240     1.40899441    -0.00009575    -0.00019310    -0.00030164
H         3.21967033     1.38408431     2.76329991     0.00015988    -0.00015308     0.00004447
     6
  Step:    44            Position(A)                                  Velocity(au)
C         1.43362299     2.28427411     2.20265961    -0.00023911     0.00002834     0.00001656
N         2.86386537     2.16958913     2.23111032     0.00021377     0.00000721     0.00002807
H         0.89301886     1.64922367     2.90004335    -0.00012107    -0.00018784    -0.00016011
H         0.99399838     2.90254385     1.45091219    -0.00006199     0.00009525    -0.00017633
H         3.42154151     2.39618435     1.40816955    -0.00009719    -0.00019466    -0.00029746
H         3.22010754     1.38366569     2.76342151     0.00015805    -0.00015045     0.00004691
     6
  Step:    45            Position(A)                                  Velocity(au)
C         1.43296913     2.28435160     2.20270489    -0.00023849     0.00002949     0.00001702
N         2.86444995     2.16960885     2.23118709     0.00021357     0.00000689     0.00002771
H         0.89268778     1.64871001     2.89960552    -0.00011897    -0.00019510    -0.00016340
H         0.99382886     2.90280431     1.45042999    -0.00006566     0.00009329    -0.00017861
H         3.42127575     2.39565204     1.40735611    -0.00009900    -0.00019704    -0.00029440
H         3.22053975     1.38325427     2.76354979     0.00015684    -0.00014811     0.00004894
     6
  Step:    46            Position(A)                                  Velocity(au)
C         1.43231696     2.28443223     2.20275144    -0.00023586     0.00003035     0.00001730
N         2.86503398     2.16962770     2.23126287     0.00021157     0.00000653     0.00002714
H         0.89236243     1.64817649     2.89915869    -0.00011622    -0.00020041    -0.00016513
H         0.99364929     2.90305944     1.44994156    -0.00006833     0.00009033    -0.00017898
H         3.42100503     2.39511320     1.40655102    -0.00009996    -0.00019782    -0.00028882
H         3.22096866     1.38284925     2.76368362     0.00015430    -0.00014426     0.00005001
     6
  Step:    47            Position(A)                                  Velocity(au)
C         1.43167196     2.28451522     2.20279876    -0.00023116     0.00003089     0.00001739
N         2.86561254     2.16964555     2.23133708     0.00020769     0.00000612     0.00002636
H         0.89204461     1.64762844     2.89870712    -0.00011278    -0.00020357    -0.00016522
H         0.99346244     2.90330646     1.44945210    -0.00006993     0.00008638    -0.00017737
H         3.42073166     2.39457225     1.40576120    -0.00009999    -0.00019683    -0.00028069
H         3.22139061     1.38245476     2.76382037     0.00015040    -0.00013893     0.00005014
     6
  Step:    48            Position(A)                                  Velocity(au)
C         1.43103982     2.28459970     2.20284632    -0.00022728     0.00003149     0.00001750
N         2.86618050     2.16966228     2.23140915     0.00020453     0.00000574     0.00002569
H         0.89173620     1.64707176     2.89825532    -0.00011002    -0.00020705    -0.00016569
H         0.99327121     2.90354268     1.44896706    -0.00007135     0.00008258    -0.00017601
H         3.42045822     2.39403399     1.40499361    -0.00010031    -0.00019652    -0.00027356
H         3.22180191     1.38207485     2.76395748     0.00014704    -0.00013392     0.00004999
     6
  Step:    49            Position(A)                                  Velocity(au)
C         1.43041830     2.28468582     2.20289419    -0.00021808     0.00003129     0.00001716
N         2.86673982     2.16967798     2.23147941     0.00019656     0.00000525     0.00002445
H         0.89143535     1.64650555     2.89780221    -0.00010494    -0.00020521    -0.00016208
H         0.99307610     2.90376850     1.44848575    -0.00007067     0.00007674    -0.00017016
H         3.42018391     2.39349658     1.40424553    -0.00009817    -0.00019151    -0.00026009
H         3.22220401     1.38170864     2.76409419     0.00014027    -0.00012568     0.00004829
     6