     6
  Step:  1000            Position(A)                                  Velocity(au)
C         1.45713990     2.30936355     2.30591279    -0.00025712    -0.00004866     0.00011428
N         2.81073426     2.10911356     2.21400671     0.00011835    -0.00003235     0.00006983
H         0.99124268     1.41493292     1.77920557     0.00054402     0.00084996    -0.00107146
H         1.30986437     3.05784266     1.41732786     0.00071978    -0.00030931    -0.00037768
H         3.29426086     2.00336330     1.31572536    -0.00065660    -0.00022094    -0.00046289
H         3.39101875     2.39699890     3.01779637     0.00081193     0.00070963    -0.00042009
