     6
  Step:     0            Position(A)                                  Velocity(au)
C         1.51410321     2.28236325     2.19884472     0.00002671    -0.00010330     0.00004871
N         2.79315507     2.16099439     2.21554559    -0.00004087     0.00017187     0.00013434
H         0.99875994     1.66114799     2.93216049    -0.00100507     0.00019113    -0.00024745
H         0.93234643     2.90587974     1.48786410     0.00089679    -0.00006276    -0.00027862
H         3.46583750     2.48496338     1.50579636    -0.00034025    -0.00092241    -0.00072712
H         3.15630893     1.42158828     2.85795645     0.00068502    -0.00036011    -0.00118705
     6
  Step:     1            Position(A)                                  Velocity(au)
C         1.51402122     2.28209866     2.19897675    -0.00008661    -0.00009027     0.00004786
N         2.79317817     2.16145301     2.21592076     0.00005771     0.00016362     0.00014007
H         0.99596230     1.66165704     2.93147659    -0.00104010     0.00018127    -0.00025312
H         0.93484575     2.90566727     1.48710441     0.00093061    -0.00009238    -0.00027736
H         3.46487813     2.48242552     1.50377715    -0.00036156    -0.00093375    -0.00074995
H         3.15818655     1.42061834     2.85465178     0.00068797    -0.00034997    -0.00122929
     6
  Step:     2            Position(A)                                  Velocity(au)
C         1.51362953     2.28186955     2.19910649    -0.00019957    -0.00007737     0.00004705
N         2.79347068     2.16188928     2.21631165     0.00015597     0.00015555     0.00014583
H         0.99307138     1.66213938     2.93077614    -0.00107325     0.00017161    -0.00025953
H         0.93743616     2.90537450     1.48634718     0.00096329    -0.00012140    -0.00027696
H         3.46386006     2.47985650     1.50169473    -0.00038306    -0.00094512    -0.00077339
H         3.16007162     1.41967423     2.85123318     0.00069054    -0.00034136    -0.00127028
     6
  Step:     3            Position(A)                                  Velocity(au)
C         1.51292970     2.28167549     2.19923407    -0.00031177    -0.00006466     0.00004630
N         2.79403123     2.16230373     2.21671835     0.00025355     0.00014767     0.00015162
H         0.99009243     1.66259564     2.93005717    -0.00110446     0.00016221    -0.00026663
H         0.94011418     2.90500329     1.48558967     0.00099456    -0.00014966    -0.00027770
H         3.46278307     2.47725645     1.49954730    -0.00040453    -0.00095636    -0.00079753
H         3.16196327     1.41875138     2.84770434     0.00069285    -0.00033454    -0.00130982
     6
  Step:     4            Position(A)                                  Velocity(au)
C         1.51192441     2.28151592     2.19935972    -0.00042277    -0.00005217     0.00004564
N         2.79485741     2.16269694     2.21714090     0.00035007     0.00014003     0.00015742
H         0.98703085     1.66302656     2.92931788    -0.00113367     0.00015310    -0.00027436
H         0.94287565     2.90455598     1.48482838     0.00102419    -0.00017698    -0.00027986
H         3.46164759     2.47462594     1.49733284    -0.00042573    -0.00096731    -0.00082245
H         3.16386100     1.41784455     2.84406947     0.00069506    -0.00032977    -0.00134774
     6
  Step:     5            Position(A)                                  Velocity(au)
C         1.51061750     2.28139015     2.19948370    -0.00053217    -0.00003996     0.00004509
N         2.79594583     2.16306960     2.21757931     0.00044517     0.00013266     0.00016322
H         0.98389215     1.66343296     2.92855663    -0.00116085     0.00014430    -0.00028265
H         0.94571573     2.90403536     1.48405907     0.00105194    -0.00020319    -0.00028371
H         3.46045465     2.47196599     1.49504915    -0.00044644    -0.00097781    -0.00084819
H         3.16576469     1.41694777     2.84033326     0.00069728    -0.00032731    -0.00138386
     6
  Step:     6            Position(A)                                  Velocity(au)
C         1.50901388     2.28129736     2.19960634    -0.00063958    -0.00002807     0.00004468
N         2.79729213     2.16342248     2.21803356     0.00053851     0.00012558     0.00016899
H         0.98068188     1.66381575     2.92777202    -0.00118602     0.00013584    -0.00029140
H         0.94862896     2.90344470     1.48327672     0.00107758    -0.00022813    -0.00028954
H         3.45920590     2.46927806     1.49269389    -0.00046645    -0.00098770    -0.00087482
H         3.16767460     1.41605440     2.83650083     0.00069967    -0.00032741    -0.00141803
     6
  Step:     7            Position(A)                                  Velocity(au)
C         1.50711950     2.28123665     2.19972807    -0.00074463    -0.00001653     0.00004443
N         2.79889104     2.16375643     2.21850357     0.00062976     0.00011883     0.00017473
H         0.97740554     1.66417592     2.92696291    -0.00120920     0.00012776    -0.00030050
H         0.95160924     2.90278767     1.48247552     0.00110087    -0.00025165    -0.00029763
H         3.45790354     2.46656405     1.49026457    -0.00048555    -0.00099681    -0.00090237
H         3.16959134     1.41515707     2.83257771     0.00070234    -0.00033033    -0.00145013
     6
  Step:     8            Position(A)                                  Velocity(au)
C         1.50494131     2.28120698     2.19984936    -0.00084699    -0.00000538     0.00004437
N         2.80073645     2.16407236     2.21898922     0.00071864     0.00011242     0.00018042
H         0.97406849     1.66451449     2.92612853    -0.00123047     0.00012006    -0.00030982
H         0.95464989     2.90206836     1.48164889     0.00112162    -0.00027362    -0.00030829
H         3.45655034     2.46382628     1.48775865    -0.00050353    -0.00100499    -0.00093085
H         3.17151586     1.41424772     2.82856976     0.00070542    -0.00033633    -0.00148002
     6
  Step:     9            Position(A)                                  Velocity(au)
C         1.50248714     2.28120724     2.19997077    -0.00126110     0.00000712     0.00005934
N         2.80282146     2.16437128     2.21949035     0.00107260     0.00014178     0.00024793
H         0.97067581     1.66483255     2.92526845    -0.00166572     0.00015028    -0.00042537
H         0.95774362     2.90129118     1.48078939     0.00151866    -0.00039167    -0.00042888
H         3.45514960     2.46106753     1.48517353    -0.00069327    -0.00134871    -0.00127970
H         3.17344944     1.41331758     2.82448314     0.00094485    -0.00046066    -0.00200912
     6
  Step:    10            Position(A)                                  Velocity(au)
C         1.49896516     2.28123656     2.20012964    -0.00131272     0.00001403     0.00005700
N         2.80583108     2.16475611     2.22017601     0.00112674     0.00013991     0.00025352
H         0.96601995     1.66519174     2.92411760    -0.00173844     0.00011207    -0.00041673
H         0.96183716     2.90023417     1.47960336     0.00147325    -0.00037932    -0.00044040
H         3.45322114     2.45734200     1.48162516    -0.00071636    -0.00137585    -0.00131688
H         3.17603763     1.41205596     2.81897270     0.00094894    -0.00046390    -0.00201889
     6
  Step:    11            Position(A)                                  Velocity(au)
C         1.49530756     2.28128398     2.20028251    -0.00136029     0.00002037     0.00005496
N         2.80898384     2.16513647     2.22087694     0.00117730     0.00013852     0.00025909
H         0.96116787     1.66544549     2.92298923    -0.00180923     0.00007307    -0.00040906
H         0.96580115     2.89921658     1.47838076     0.00142396    -0.00036274    -0.00045554
H         3.45123167     2.45354270     1.47797119    -0.00073793    -0.00140278    -0.00135701
H         3.17863939     1.41078041     2.81344135     0.00095486    -0.00047078    -0.00202428
     6
  Step:    12            Position(A)                                  Velocity(au)
C         1.49152539     2.28134796     2.20043021    -0.00140386     0.00002615     0.00005322
N         2.81226998     2.16551370     2.22159303     0.00122430     0.00013762     0.00026462
H         0.95612483     1.66559138     2.92188038    -0.00187814     0.00003303    -0.00040262
H         0.96962514     2.89825025     1.47711190     0.00137095    -0.00034173    -0.00047408
H         3.44918523     2.44966988     1.47420334    -0.00075810    -0.00142980    -0.00140030
H         3.18125998     1.40948113     2.80790147     0.00096280    -0.00048113    -0.00202496
     6
  Step:    13            Position(A)                                  Velocity(au)
C         1.48762954     2.28142700     2.20057356    -0.00144352     0.00003141     0.00005177
N         2.81567983     2.16588913     2.22232418     0.00126783     0.00013720     0.00027010
H         0.95089592     1.66562616     2.92078720    -0.00194519    -0.00000843    -0.00039781
H         0.97329919     2.89734760     1.47578793     0.00131445    -0.00031602    -0.00049559
H         3.44708546     2.44572281     1.47031263    -0.00077706    -0.00145735    -0.00144703
H         3.18390519     1.40814901     2.80236640     0.00097300    -0.00049457    -0.00202052
     6
  Step:    14            Position(A)                                  Velocity(au)
C         1.48363046     2.28151972     2.20071334    -0.00147949     0.00003619     0.00005059
N         2.81920405     2.16626405     2.22307028     0.00130804     0.00013723     0.00027554
H         0.94548616     1.66554526     2.91970466    -0.00201034    -0.00005195    -0.00039521
H         0.97681415     2.89652185     1.47440140     0.00125483    -0.00028526    -0.00051938
H         3.44493533     2.44169929     1.46628920    -0.00079513    -0.00148613    -0.00149763
H         3.18658152     1.40677620     2.79685079     0.00098575    -0.00051047    -0.00201036
     6
  Step:    15            Position(A)                                  Velocity(au)
C         1.47953785     2.28162492     2.20085026    -0.00151221     0.00004059     0.00004964
N         2.82283382     2.16663967     2.22383120     0.00134523     0.00013767     0.00028096
H         0.93990093     1.66534203     2.91862572    -0.00207324    -0.00009851    -0.00039580
H         0.98016212     2.89578745     1.47294731     0.00119275    -0.00024888    -0.00054426
H         3.44273673     2.43759482     1.46212173    -0.00081282    -0.00151723    -0.00155284
H         3.18929647     1.40535711     2.79137131     0.00100154    -0.00052772    -0.00199348
     6
  Step:    16            Position(A)                                  Velocity(au)
C         1.47535983     2.28174172     2.20098482    -0.00154263     0.00004480     0.00004881
N         2.82656141     2.16701698     2.22460689     0.00138003     0.00013839     0.00028637
H         0.93414713     1.66500648     2.91753993    -0.00213273    -0.00014967    -0.00040140
H         0.98333758     2.89516066     1.47142471     0.00112964    -0.00020610    -0.00056818
H         3.44048986     2.43340122     1.45779638    -0.00083092    -0.00155239    -0.00161387
H         3.19205918     1.40389000     2.78594798     0.00102120    -0.00054438    -0.00196826
     6
  Step:    17            Position(A)                                  Velocity(au)
C         1.47110085     2.28186993     2.20111720    -0.00157311     0.00004918     0.00004800
N         2.83038150     2.16739654     2.22539741     0.00141395     0.00013913     0.00029182
H         0.92823652     1.66452345     2.91643039    -0.00218550    -0.00020710    -0.00041514
H         0.98634036     2.89466026     1.46983982     0.00106891    -0.00015650    -0.00058798
H         3.43819223     2.42910447     1.45329513    -0.00085044    -0.00159371    -0.00168234
H         3.19488163     1.40237976     2.78060647     0.00104594    -0.00055772    -0.00193243
     6
  Step:    18            Position(A)                                  Velocity(au)
C         1.46675613     2.28201070     2.20124736    -0.00160810     0.00005420     0.00004737
N         2.83429464     2.16777790     2.22620292     0.00144985     0.00013946     0.00029726
H         0.92219416     1.66387378     2.91526946    -0.00222511    -0.00026873    -0.00043972
H         0.98918367     2.89430474     1.46820891     0.00101712    -0.00010327    -0.00060228
H         3.43583859     2.42468484     1.44859529    -0.00087114    -0.00164012    -0.00175760
H         3.19777968     1.40083968     2.77537908     0.00107610    -0.00056742    -0.00188636
     6
  Step:    19            Position(A)                                  Velocity(au)
C         1.46230580     2.28216639     2.20137630    -0.00165009     0.00005982     0.00004746
N         2.83831106     2.16815930     2.22702319     0.00148932     0.00013929     0.00030244
H         0.91606691     1.66305368     2.91402545    -0.00224812    -0.00032613    -0.00047219
H         0.99190323     2.89409545     1.46654581     0.00097823    -0.00005389    -0.00061635
H         3.43342774     2.42013430     1.44368242    -0.00089020    -0.00168410    -0.00183374
H         3.20076704     1.39927639     2.77028951     0.00110897    -0.00057994    -0.00183678
     6
  Step:    20            Position(A)                                  Velocity(au)
C         1.45773144     2.28233788     2.20150695    -0.00045149     0.00001742     0.00001294
N         2.84244004     2.16853970     2.22785704     0.00040740     0.00003700     0.00008176
H         0.90989866     1.66209009     2.91268695    -0.00060131    -0.00009940    -0.00013477
H         0.99453384     2.89400998     1.46483792     0.00025242    -0.00000325    -0.00016953
H         3.43096991     2.41547412     1.43856614    -0.00024096    -0.00045774    -0.00050716
H         3.20384488     1.39766788     2.76533332     0.00030383    -0.00016022    -0.00047649
     6
  Step:    21            Position(A)                                  Velocity(au)
C         1.45643282     2.28239301     2.20154468    -0.00049816     0.00002284     0.00001477
N         2.84361046     2.16864059     2.22808673     0.00044842     0.00003683     0.00008616
H         0.90824510     1.66176068     2.91227240    -0.00060737    -0.00014043    -0.00016822
H         0.99518676     2.89405324     1.46434058     0.00022540     0.00003419    -0.00019522
H         3.43029330     2.41418007     1.43708533    -0.00025342    -0.00048771    -0.00057517
H         3.20471922     1.39719231     2.76409137     0.00033547    -0.00018885    -0.00043228
     6
  Step:    22            Position(A)                                  Velocity(au)
C         1.45500689     2.28246280     2.20158774    -0.00054450     0.00002814     0.00001683
N         2.84489253     2.16874113     2.22832829     0.00048899     0.00003675     0.00009044
H         0.90657680     1.66132203     2.91176692    -0.00061220    -0.00017941    -0.00020124
H         0.99576663     2.89419699     1.46377019     0.00019893     0.00007029    -0.00022285
H         3.42958388     2.41280672     1.43542041    -0.00026501    -0.00051583    -0.00064178
H         3.20567963     1.39663503     2.76296909     0.00036674    -0.00021980    -0.00038900
     6
  Step:    23            Position(A)                                  Velocity(au)
C         1.45345482     2.28254690     2.20163674    -0.00059031     0.00003332     0.00001910
N         2.84628485     2.16884157     2.22858137     0.00052898     0.00003675     0.00009459
H         0.90489682     1.66077943     2.91117177    -0.00061602    -0.00021658    -0.00023380
H         0.99627478     2.89443765     1.46312178     0.00017291     0.00010509    -0.00025219
H         3.42884390     2.41135886     1.43357530    -0.00027583    -0.00054232    -0.00070694
H         3.20672502     1.39599017     2.76196385     0.00039759    -0.00025271    -0.00034670
     6
  Step:    24            Position(A)                                  Velocity(au)
C         1.45177833     2.28264500     2.20169221    -0.00063542     0.00003838     0.00002156
N         2.84778564     2.16894213     2.22884565     0.00056827     0.00003684     0.00009863
H         0.90320762     1.66013752     2.91048821    -0.00061905    -0.00025218    -0.00026589
H         0.99671231     2.89477176     1.46239092     0.00014726     0.00013867    -0.00028302
H         3.42807529     2.40984064     1.43155402    -0.00028601    -0.00056741    -0.00077060
H         3.20785416     1.39525291     2.76107289     0.00042796    -0.00028719    -0.00030543
     6
  Step:    25            Position(A)                                  Velocity(au)
C         1.44997957     2.28275681     2.20175464    -0.00067966     0.00004334     0.00002418
N         2.84939283     2.16904305     2.22912078     0.00060675     0.00003701     0.00010254
H         0.90151111     1.65940023     2.90971756    -0.00062145    -0.00028646    -0.00029750
H         0.99708016     2.89519606     1.46157389     0.00012192     0.00017107    -0.00031510
H         3.42727964     2.40825559     1.42936070    -0.00029566    -0.00059131    -0.00083273
H         3.20906566     1.39441947     2.76029336     0.00045780    -0.00032285    -0.00026523
     6
  Step:    26            Position(A)                                  Velocity(au)
C         1.44806109     2.28288203     2.20182445    -0.00072292     0.00004820     0.00002694
N         2.85110410     2.16914454     2.22940646     0.00064435     0.00003726     0.00010634
H         0.89980874     1.65857083     2.90886113    -0.00062341    -0.00031965    -0.00032863
H         0.99737914     2.89570737     1.46066758     0.00009689     0.00020231    -0.00034819
H         3.42645824     2.40660663     1.42699960    -0.00030491    -0.00061425    -0.00089328
H         3.21035799     1.39348716     2.75962227     0.00048705    -0.00035931    -0.00022615
     6
  Step:    27            Position(A)                                  Velocity(au)
C         1.44602575     2.28302042     2.20190200    -0.00076508     0.00005298     0.00002983
N         2.85291691     2.16924681     2.22970236     0.00068098     0.00003757     0.00011002
H         0.89810155     1.65765198     2.90792021    -0.00062505    -0.00035198    -0.00035928
H         0.99761005     2.89630255     1.45966957     0.00007214     0.00023241    -0.00038205
H         3.42561202     2.40489614     1.42447515    -0.00031386    -0.00063641    -0.00095217
H         3.21172945     1.39245434     2.75905649     0.00051565    -0.00039617    -0.00018825
     6
  Step:    28            Position(A)                                  Velocity(au)
C         1.44387670     2.28317176     2.20198758    -0.00080605     0.00005768     0.00003281
N         2.85482855     2.16935002     2.23000817     0.00071660     0.00003794     0.00011358
H         0.89639020     1.65664575     2.90689613    -0.00062651    -0.00038365    -0.00038945
H         0.99777369     2.89697845     1.45857806     0.00004770     0.00026134    -0.00041645
H         3.42474164     2.40312594     1.42179194    -0.00032263    -0.00065799    -0.00100934
H         3.21317821     1.39132040     2.75859270     0.00054355    -0.00043308    -0.00015160
     6
  Step:    29            Position(A)                                  Velocity(au)
C         1.44161728     2.28333589     2.20208144    -0.00084576     0.00006233     0.00003587
N         2.85683616     2.16945431     2.23032357     0.00075116     0.00003836     0.00011704
H         0.89467502     1.65555371     2.90579020    -0.00062790    -0.00041483    -0.00041914
H         0.99787093     2.89773187     1.45739188     0.00002360     0.00028908    -0.00045118
H         3.42384746     2.40129744     1.41895482    -0.00033132    -0.00067914    -0.00106470
H         3.21470225     1.39008571     2.75822734     0.00057068    -0.00046969    -0.00011630
     6
  Step:    30            Position(A)                                  Velocity(au)
C         1.43925105     2.28351267     2.20218375    -0.00088415     0.00006694     0.00003899
N         2.85893681     2.16955979     2.23064827     0.00078462     0.00003881     0.00012038
H         0.89295609     1.65437695     2.90460377    -0.00062931    -0.00044569    -0.00044833
H         0.99790274     2.89855947     1.45611046    -0.00000014     0.00031557    -0.00048601
H         3.42292958     2.39941159     1.41596887    -0.00034002    -0.00070000    -0.00111814
H         3.21629938     1.38875156     2.75795664     0.00059698    -0.00050566    -0.00008242
     6
  Step:    31            Position(A)                                  Velocity(au)
C         1.43678166     2.28370201     2.20229466    -0.00092118     0.00007153     0.00004215
N         2.86112744     2.16966655     2.23098195     0.00081697     0.00003928     0.00012361
H         0.89123320     1.65311613     2.90333819    -0.00063083    -0.00047638    -0.00047702
H         0.99787019     2.89945779     1.45473379    -0.00002345     0.00034076    -0.00052074
H         3.42198783     2.39746898     1.41283946    -0.00034881    -0.00072071    -0.00116957
H         3.21796725     1.38732013     2.75777657     0.00062238    -0.00054069    -0.00005006
     6
  Step:    32            Position(A)                                  Velocity(au)
C         1.43421290     2.28390386     2.20241426    -0.00095681     0.00007610     0.00004533
N         2.86340499     2.16977463     2.23132430     0.00084818     0.00003977     0.00012672
H         0.88950592     1.65177154     2.90199484    -0.00063255    -0.00050702    -0.00050520
H         0.99777450     2.90042316     1.45326240    -0.00004629     0.00036457    -0.00055519
H         3.42102184     2.39546986     1.40957225    -0.00035779    -0.00074138    -0.00121886
H         3.21970332     1.38579443     2.75768283     0.00064683    -0.00057447    -0.00001933
     6
  Step:    33            Position(A)                                  Velocity(au)
C         1.43154863     2.28411824     2.20254258    -0.00099103     0.00008069     0.00004852
N         2.86576631     2.16988404     2.23167500     0.00087824     0.00004025     0.00012972
H         0.88777362     1.65034310     2.90057512    -0.00063454    -0.00053776    -0.00053287
H         0.99761701     2.90145173     1.45169734    -0.00006861     0.00038693    -0.00058916
H         3.42003100     2.39341420     1.40617323    -0.00036702    -0.00076211    -0.00126591
H         3.22150489     1.38417824     2.75767086     0.00067026    -0.00060673     0.00000969
     6
  Step:    34            Position(A)                                  Velocity(au)
C         1.42879275     2.28434518     2.20267963    -0.00102381     0.00008531     0.00005170
N         2.86820828     2.16999475     2.23203374     0.00090716     0.00004072     0.00013259
H         0.88603549     1.64883042     2.89908046    -0.00063685    -0.00056868    -0.00056001
H         0.99739925     2.90253939     1.45004014    -0.00009035     0.00040776    -0.00062249
H         3.41901451     2.39130169     1.40264869    -0.00037658    -0.00078299    -0.00131060
H         3.22336912     1.38247606     2.75773585     0.00069263    -0.00063724     0.00003691
     6
  Step:    35            Position(A)                                  Velocity(au)
C         1.42594919     2.28458479     2.20282536    -0.00105515     0.00008996     0.00005487
N         2.87072777     2.17010673     2.23240019     0.00093494     0.00004116     0.00013535
H         0.88429057     1.64723285     2.89751228    -0.00063953    -0.00059990    -0.00058663
H         0.99712285     2.90368184     1.44829280    -0.00011146     0.00042696    -0.00065501
H         3.41797142     2.38913182     1.39900527    -0.00038651    -0.00080410    -0.00135280
H         3.22529302     1.38069305     2.75787272     0.00071387    -0.00066575     0.00006223
     6
  Step:    36            Position(A)                                  Velocity(au)
C         1.42302188     2.28483721     2.20297970    -0.00108507     0.00009468     0.00005799
N         2.87332167     2.17021986     2.23277402     0.00096158     0.00004156     0.00013799
H         0.88253775     1.64554945     2.89587202    -0.00064264    -0.00063149    -0.00061273
H         0.99678963     2.90487452     1.44645774    -0.00013189     0.00044444    -0.00068657
H         3.41690060     2.38690386     1.39524992    -0.00039688    -0.00082551    -0.00139240
H         3.22727346     1.37883494     2.75807619     0.00073396    -0.00069206     0.00008558
     6
  Step:    37            Position(A)                                  Velocity(au)
C         1.42001471     2.28510261     2.20314254    -0.00111356     0.00009947     0.00006108
N         2.87598689     2.17033405     2.23315489     0.00098711     0.00004192     0.00014050
H         0.88077581     1.64377909     2.89416113    -0.00064622    -0.00066354    -0.00063830
H         0.99640152     2.90611262     1.44453778    -0.00015158     0.00046013    -0.00071704
H         3.41580080     2.38461692     1.39138990    -0.00040772    -0.00084727    -0.00142929
H         3.22930721     1.37690803     2.75834077     0.00075285    -0.00071598     0.00010688
     6
  Step:    38            Position(A)                                  Velocity(au)
C         1.41693156     2.28538123     2.20331374    -0.00114065     0.00010435     0.00006411
N         2.87872040     2.17044913     2.23354244     0.00101154     0.00004221     0.00014288
H         0.87900344     1.64192042     2.89238102    -0.00065028    -0.00069611    -0.00066336
H         0.99596060     2.90739110     1.44253611    -0.00017049     0.00047394    -0.00074627
H         3.41467067     2.38226994     1.38743280    -0.00041908    -0.00086943    -0.00146335
H         3.23139096     1.37491908     2.75866076     0.00077051    -0.00073736     0.00012608
     6
  Step:    39            Position(A)                                  Velocity(au)
C         1.41377625     2.28567335     2.20349315    -0.00116635     0.00010935     0.00006707
N         2.88151921     2.17056493     2.23393632     0.00103488     0.00004244     0.00014512
H         0.87721926     1.63997192     2.89053307    -0.00065486    -0.00072926    -0.00068792
H         0.99546906     2.90870471     1.44045626    -0.00018858     0.00048579    -0.00077416
H         3.41350875     2.37986179     1.38338648    -0.00043098    -0.00089204    -0.00149449
H         3.23352132     1.37287524     2.75903035     0.00078693    -0.00075606     0.00014313
     6
  Step:    40            Position(A)                                  Velocity(au)
C         1.41055252     2.28597927     2.20368057    -0.00046875     0.00004506     0.00002754
N         2.88438042     2.17068124     2.23433616     0.00041618     0.00001677     0.00005796
H         0.87542183     1.63793191     2.88861864    -0.00025982    -0.00030040    -0.00028029
H         0.99492920     2.91004798     1.43830207    -0.00008102     0.00019510    -0.00031517
H         3.41231351     2.37739120     1.37925910    -0.00017458    -0.00036026    -0.00059941
H         3.23569486     1.37078403     2.75944358     0.00031576    -0.00030390     0.00006219
     6
  Step:    41            Position(A)                                  Velocity(au)
C         1.40923829     2.28610957     2.20375981    -0.00049216     0.00005026     0.00003039
N         2.88554829     2.17072723     2.23449744     0.00043775     0.00001685     0.00005997
H         0.87470398     1.63706379     2.88781954    -0.00026531    -0.00033466    -0.00030405
H         0.99468467     2.91059350     1.43740506    -0.00009763     0.00020344    -0.00034054
H         3.41181869     2.37637416     1.37758362    -0.00018744    -0.00038367    -0.00062536
H         3.23657820     1.36993321     2.75963246     0.00033003    -0.00031778     0.00007549
     6
  Step:    42            Position(A)                                  Velocity(au)
C         1.40786077     2.28625417     2.20384677    -0.00051504     0.00005553     0.00003320
N         2.88677458     2.17077341     2.23466414     0.00045890     0.00001690     0.00006192
H         0.87397082     1.63610160     2.88695571    -0.00027101    -0.00036920    -0.00032764
H         0.99439524     2.91116064     1.43643956    -0.00011385     0.00021087    -0.00036523
H         3.41128838     2.37529280     1.37583887    -0.00020051    -0.00040730    -0.00065006
H         3.23749984     1.36904604     2.75985647     0.00034377    -0.00033043     0.00008787
     6
  Step:    43            Position(A)                                  Velocity(au)
C         1.40642142     2.28641326     2.20394137    -0.00053737     0.00006086     0.00003597
N         2.88805811     2.17081966     2.23483609     0.00047961     0.00001691     0.00006381
H         0.87322174     1.63504453     2.88602760    -0.00027695    -0.00040406    -0.00035108
H         0.99406203     2.91174680     1.43540751    -0.00012963     0.00021732    -0.00038919
H         3.41072203     2.37414656     1.37402832    -0.00021379    -0.00043114    -0.00067348
H         3.23845834     1.36812599     2.76011305     0.00035696    -0.00034180     0.00009929
     6
  Step:    44            Position(A)                                  Velocity(au)
C         1.40492177     2.28658703     2.20404352    -0.00055914     0.00006626     0.00003872
N         2.88939770     2.17086587     2.23501314     0.00049989     0.00001686     0.00006565
H         0.87245612     1.63389170     2.88503556    -0.00028311    -0.00043924    -0.00037440
H         0.99368625     2.91234922     1.43431101    -0.00014496     0.00022273    -0.00041234
H         3.41011910     2.37293483     1.37215548    -0.00022726    -0.00045520    -0.00069560
H         3.23945216     1.36717667     2.76039949     0.00036960    -0.00035181     0.00010970
     6