 Fermi distribution function
 
Calculation with static geometry
 

********************************************************************************
 iSCC Total electronic   Diff electronic      SCC error    
   12   -0.53358030E+01   -0.14559021E-10    0.67470025E-07
********************************************************************************
 
 Total charge:     1.00000000

 Atomic gross charges (e)
 Atom           Charge
    1       0.50864649
    2      -0.41204914
    3       0.15897238
    4       0.13677286
    5       0.29654457
    6       0.31111284
 
Nr. of electrons (up):     12.00000000
Atom populations (up)
 Atom       Population
    1       3.49135351
    2       5.41204914
    3       0.84102762
    4       0.86322714
    5       0.70345543
    6       0.68888716
 
l-shell populations (up)
 Atom Sh.   l       Population
    1   1   0       1.34222881
    1   2   1       2.14912469
    2   1   0       1.43617360
    2   2   1       3.97587554
    3   1   0       0.84102762
    4   1   0       0.86322714
    5   1   0       0.70345543
    6   1   0       0.68888716
 
Orbital populations (up)
 Atom Sh.   l   m       Population  Label
    1   1   0   0       1.34222881  s
    1   2   1  -1       0.30253742  p_y
    1   2   1   0       0.95037592  p_z
    1   2   1   1       0.89621136  p_x
    2   1   0   0       1.43617360  s
    2   2   1  -1       1.16458707  p_y
    2   2   1   0       1.76710710  p_z
    2   2   1   1       1.04418138  p_x
    3   1   0   0       0.84102762  s
    4   1   0   0       0.86322714  s
    5   1   0   0       0.70345543  s
    6   1   0   0       0.68888716  s
 
Fermi level:                        -0.4915477639 H          -13.3757 eV
Band energy:                        -8.6973338942 H         -236.6665 eV
TS:                                  0.0000000000 H            0.0000 eV
Band free energy (E-TS):            -8.6973338942 H         -236.6665 eV
Extrapolated E(0K):                 -8.6973338942 H         -236.6665 eV
Input / Output electrons (q):     12.0000000000     12.0000000000
 
Energy H0:                          -5.4757227199 H         -149.0020 eV
Energy SCC:                          0.1399196938 H            3.8074 eV
Total Electronic energy:            -5.3358030261 H         -145.1946 eV
Repulsive energy:                    0.1792497985 H            4.8776 eV
Total energy:                       -5.1565532276 H         -140.3170 eV
Extrapolated to 0:                  -5.1565532276 H         -140.3170 eV
Total Mermin free energy:           -5.1565532276 H         -140.3170 eV
Force related energy:               -5.1565532276 H         -140.3170 eV
 
SCC converged
 
Excitation Energy:                   0.0243781319 H            0.6634 eV
 
Total Forces
    1      0.032661816015      0.002210218882      0.002489778453
    2     -0.035227863417      0.021990946443      0.007367341180
    3     -0.006743954006     -0.035663490397      0.004266390884
    4      0.003740414508      0.033755765934     -0.015392121004
    5      0.008017860526     -0.025777245075     -0.034400481407
    6     -0.002448273626      0.003483804212      0.035669091894
 
Maximal derivative component:        0.356691E-01 au
 
 
