|===============================================================================
|
|  DFTB+ release 19.1
|
|  Copyright (C) 2006 - 2019  DFTB+ developers group
|
|===============================================================================
|
|  When publishing results obtained with DFTB+, please cite the following
|  reference:
|
|  * B. Aradi, B. Hourahine and T. Frauenheim,
|    DFTB+, a Sparse Matrix-Based Implementation of the DFTB Method,
|    J. Phys. Chem. A, 111 5678 (2007).  [doi: 10.1021/jp070186p]
|
|  You should also cite additional publications crediting the parametrization
|  data you use. Please consult the documentation of the SK-files for the
|  references.
|
|===============================================================================

Reading input file 'dftb_in.hsd'
Parser version: 7

--------------------------------------------------------------------------------
Reading SK-files:
Done.


Processed input in HSD format written to 'dftb_pin.hsd'

Starting initialization...
--------------------------------------------------------------------------------
WARNING!
-> Excited state forces are not implemented yet for fractional occupations, kT=  0.3158E-02K
OpenMP threads:              1
Chosen random seed:          1042603403
Mode:                        Static calculation
Self consistent charges:     Yes
SCC-tolerance:                 0.100000E-05
Max. scc iterations:                    200
Shell resolved Hubbard:      No
Spin polarisation:           No
Nr. of up electrons:             6.000000
Nr. of down electrons:           6.000000
Periodic boundaries:         No
Electronic solver:           Relatively robust
Mixer:                       Broyden mixer
Mixing parameter:                  0.200000
Maximal SCC-cycles:                     200
Nr. of chrg. vec. in memory:              0
Electronic temperature:        0.100000E-07 H      0.272114E-06 eV
Initial charges:             Set automatically (system chrg:   0.100E+01)
Included shells:             C:  s, p
                             N:  s, p
                             H:  s
Extra options:
                             Mulliken analysis
                             Force calculation
Force type                   original
                             Eigenvector printing

--------------------------------------------------------------------------------

***  Geometry step: 0

 iSCC Total electronic   Diff electronic      SCC error    
    1   -0.53160039E+01    0.00000000E+00    0.11173423E+01
    2   -0.53257814E+01   -0.97774562E-02    0.80580390E+00
    3   -0.53349622E+01   -0.91808655E-02    0.90785612E-01
    4   -0.53338462E+01    0.11160538E-02    0.13921810E+00
    5   -0.53358006E+01   -0.19544680E-02    0.10994525E-01
    6   -0.53357914E+01    0.92106518E-05    0.16245015E-01
    7   -0.53357985E+01   -0.70940406E-05    0.10211803E-01
    8   -0.53358020E+01   -0.34765491E-05    0.49133894E-02
    9   -0.53358025E+01   -0.53537851E-06    0.33839734E-02
   10   -0.53358030E+01   -0.48497293E-06    0.59974895E-04
   11   -0.53358030E+01   -0.13398616E-09    0.17608327E-04
   12   -0.53358030E+01   -0.14559021E-10    0.67470025E-07
>> Charges saved for restart in charges.bin
 
Total Energy:                       -5.1321750957 H         -139.6536 eV
Extrapolated to 0:                  -5.1565532276 H         -140.3170 eV
Total Mermin free energy:           -5.1321750957 H         -139.6536 eV
Force related energy:               -5.1565532276 H         -140.3170 eV
 
--------------------------------------------------------------------------------
DFTB+ running times                          cpu [s]             wall clock [s]
--------------------------------------------------------------------------------
SCC                                    +     0.02  ( 68.9%)      0.05  ( 81.9%)
--------------------------------------------------------------------------------
Missing                                +     0.01  ( 31.1%)      0.01  ( 18.1%)
Total                                  =     0.03  (100.0%)      0.06  (100.0%)
--------------------------------------------------------------------------------
