     6
  Step:     0            Position(A)                                  Velocity(au)
C        -0.69284974     0.00000000     0.00000000     0.00000000     0.00000000     0.00000000
C         0.66284974     0.00000000     0.00000000     0.00000000     0.00000000     0.00000000
H        -1.03381877     0.72280451    -0.32280655     0.00000000     0.00000000     0.00000000
H        -1.23381879    -0.72280451    -0.34280655     0.00000000     0.00000000     0.00000000
H         1.03381877     0.75280451    -0.32280655     0.00000000     0.00000000     0.00000000
H         1.03381877    -0.72280451    -0.31280655     0.00000000     0.00000000     0.00000000
     6
  Step:     1            Position(A)                                  Velocity(au)
C        -0.69283980    -0.00005400     0.00004744     0.00000708    -0.00003925     0.00003455
C         0.66282462     0.00001653     0.00005464    -0.00001815     0.00001201     0.00003978
H        -1.03427975     0.72385707    -0.32324702    -0.00033541     0.00076610    -0.00032063
H        -1.23406156    -0.72321669    -0.34292047    -0.00017713    -0.00030075    -0.00008300
H         1.03422087     0.75356542    -0.32306942     0.00029311     0.00055438    -0.00019136
H         1.03430128    -0.72375935    -0.31320573     0.00035125    -0.00069515    -0.00029070
     6
  Step:     2            Position(A)                                  Velocity(au)
C        -0.69281099    -0.00021465     0.00018894     0.00001344    -0.00007754     0.00006848
C         0.66275049     0.00006568     0.00021757    -0.00003543     0.00002370     0.00007886
H        -1.03565320     0.72699448    -0.32456014    -0.00066396     0.00151760    -0.00063531
H        -1.23478755    -0.72444938    -0.34326051    -0.00035257    -0.00059868    -0.00016475
H         1.03542188     0.75583655    -0.32385313     0.00058242     0.00110037    -0.00037917
H         1.03573985    -0.72660646    -0.31439644     0.00069604    -0.00137774    -0.00057650
     6
  Step:     3            Position(A)                                  Velocity(au)
C        -0.69276627    -0.00047808     0.00042200     0.00001840    -0.00011400     0.00010125
C         0.66263088     0.00014616     0.00048592    -0.00005101     0.00003479     0.00011656
H        -1.03791110     0.73215715    -0.32672167    -0.00097921     0.00224077    -0.00093851
H        -1.23598986    -0.72649100    -0.34382151    -0.00052471    -0.00089102    -0.00024399
H         1.03740628     0.75958359    -0.32514316     0.00086432     0.00162994    -0.00056001
H         1.03810807    -0.73129455    -0.31635874     0.00102823    -0.00203592    -0.00085283
     6
  Step:     4            Position(A)                                  Velocity(au)
C        -0.69271036    -0.00083812     0.00074267     0.00002135    -0.00014786     0.00013232
C         0.66247148     0.00025598     0.00085504    -0.00006418     0.00004505     0.00015228
H        -1.04100871     0.73924977    -0.32969305    -0.00127551     0.00292355    -0.00122538
H        -1.23765731    -0.72932259    -0.34459492    -0.00069199    -0.00117515    -0.00031955
H         1.04014903     0.76475107    -0.32691593     0.00113548     0.00213577    -0.00073079
H         1.04136350    -0.73774135    -0.31906077     0.00134241    -0.00265914    -0.00111563
     6
  Step:     5            Position(A)                                  Velocity(au)
C        -0.69264952    -0.00128675     0.00114570     0.00002180    -0.00017854     0.00016129
C         0.66227986     0.00039257     0.00131878    -0.00007432     0.00005432     0.00018553
H        -1.04488713     0.74814672    -0.33342355    -0.00154826     0.00355609    -0.00149206
H        -1.23977451    -0.73291817    -0.34556920    -0.00085300    -0.00144860    -0.00039034
H         1.04361649     0.77126463    -0.32913999     0.00139307     0.00261152    -0.00088881
H         1.04545001    -0.74583800    -0.32246036     0.00163403    -0.00323868    -0.00136158
     6
  Step:     6            Position(A)                                  Velocity(au)
C        -0.69259116    -0.00181462     0.00162483     0.00001938    -0.00020567     0.00018785
C         0.66206503     0.00055304     0.00186975    -0.00008096     0.00006250     0.00021592
H        -1.04947647     0.75869882    -0.33785346    -0.00179405     0.00413106    -0.00173583
H        -1.24232255    -0.73724531    -0.34672979    -0.00100652    -0.00170914    -0.00045534
H         1.04776805     0.77903407    -0.33177704     0.00163480     0.00305199    -0.00103185
H         1.05030038    -0.75545445    -0.32650758     0.00189960    -0.00376788    -0.00158828
     6
  Step:     7            Position(A)                                  Velocity(au)
C        -0.69254353    -0.00241161     0.00217308     0.00001387    -0.00022905     0.00021177
C         0.66183706     0.00073439     0.00249969    -0.00008381     0.00006960     0.00024318
H        -1.05469920     0.77074043    -0.34291717    -0.00201071     0.00464375    -0.00195507
H        -1.24527938    -0.74226582    -0.34805958    -0.00115151    -0.00195478    -0.00051367
H         1.05255759     0.78795666    -0.33478343     0.00185897     0.00345324    -0.00115822
H         1.05583935    -0.76644541    -0.33114704     0.00213672    -0.00424223    -0.00179418
     6
  Step:     8            Position(A)                                  Velocity(au)
C        -0.69251532    -0.00306734     0.00278303     0.00000517    -0.00024868     0.00023294
C         0.66160664     0.00093371     0.00319973    -0.00008272     0.00007569     0.00026715
H        -1.06047348     0.78409653    -0.34854619    -0.00219718     0.00509186    -0.00214928
H        -1.24862043    -0.74793646    -0.34953914    -0.00128720    -0.00218384    -0.00056452
H         1.05793519     0.79792063    -0.33811160     0.00206450     0.00381259    -0.00126672
H         1.06198657    -0.77865616    -0.33632039     0.00234401    -0.00465927    -0.00197864
     6
  Step:     9            Position(A)                                  Velocity(au)
C        -0.69251528    -0.00377168     0.00344710    -0.00000671    -0.00026470     0.00025135
C         0.66138465     0.00114836     0.00396079    -0.00007767     0.00008088     0.00028780
H        -1.06671607     0.79858895    -0.35467210    -0.00235345     0.00547522    -0.00231881
H        -1.25231938    -0.75420976    -0.35114704    -0.00141299    -0.00239495    -0.00060728
H         1.06384883     0.80880856    -0.34171142     0.00225084     0.00412854    -0.00135673
H         1.06865930    -0.79192802    -0.34196868     0.00252109    -0.00501839    -0.00214172
     6
  Step:    10            Position(A)                                  Velocity(au)
C        -0.69255201    -0.00451506     0.00415772    -0.00002163    -0.00027739     0.00026704
C         0.66118184     0.00137608     0.00477377    -0.00006879     0.00008534     0.00030517
H        -1.07334505     0.81404174    -0.36122829    -0.00248033     0.00579539    -0.00246473
H        -1.25634842    -0.76103496    -0.35286051    -0.00152852    -0.00258702    -0.00064151
H         1.07024555     0.82050054    -0.34553188     0.00241794     0.00440069    -0.00142810
H         1.07577497    -0.80610287    -0.34803394     0.00266834    -0.00532050    -0.00228413
     6
  Step:    11            Position(A)                                  Velocity(au)
C        -0.69263358    -0.00528881     0.00490758    -0.00003937    -0.00028710     0.00028011
C         0.66100843     0.00161508     0.00562984    -0.00005631     0.00008923     0.00031939
H        -1.08028158     0.83028527    -0.36815226    -0.00257925     0.00605529    -0.00258871
H        -1.26067919    -0.76835875    -0.35465558    -0.00163366    -0.00275929    -0.00066684
H         1.07707310     0.83287696    -0.34952200     0.00256624     0.00462960    -0.00148104
H         1.08325305    -0.82102705    -0.35446109     0.00278682    -0.00556778    -0.00240710
     6
  Step:    12            Position(A)                                  Velocity(au)
C        -0.69276735    -0.00608528     0.00568970    -0.00005965    -0.00029423     0.00029072
C         0.66087388     0.00186410     0.00652060    -0.00004055     0.00009276     0.00033065
H        -1.08745154     0.84715950    -0.37538654    -0.00265211     0.00625880    -0.00269274
H        -1.26528326    -0.77612613    -0.35650763    -0.00172845    -0.00291128    -0.00068314
H         1.08428090     0.84582088    -0.35363204     0.00269650     0.00481657    -0.00151619
H         1.09101673    -0.83655431    -0.36119894     0.00287811    -0.00576331    -0.00251220
     6
  Step:    13            Position(A)                                  Velocity(au)
C        -0.69295982    -0.00689803     0.00649758    -0.00008211    -0.00029921     0.00029904
C         0.66078663     0.00212239     0.00743824    -0.00002191     0.00009609     0.00033917
H        -1.09478656     0.86451609    -0.38287948    -0.00270113     0.00641041    -0.00277896
H        -1.27013251    -0.78428119    -0.35839185    -0.00181311    -0.00304279    -0.00069042
H         1.09182085     0.85921989    -0.35781437     0.00280970     0.00496353    -0.00153444
H         1.09899410    -0.85254788    -0.36820087     0.00294415    -0.00591078    -0.00260112
     6
  Step:    14            Position(A)                                  Velocity(au)
C        -0.69321646    -0.00772173     0.00732522    -0.00010639    -0.00030244     0.00030527
C         0.66075402     0.00238965     0.00837558    -0.00000081     0.00009939     0.00034519
H        -1.10222463     0.88221953    -0.39058534    -0.00272869     0.00651489    -0.00284951
H        -1.27519955    -0.79276785    -0.36028369    -0.00188789    -0.00315387    -0.00068885
H         1.09964781     0.87296755    -0.36202424     0.00290699     0.00507281    -0.00153696
H         1.10711894    -0.86888173    -0.37542506     0.00298709    -0.00601424    -0.00267562
     6
  Step:    15            Position(A)                                  Velocity(au)
C        -0.69354171    -0.00855215     0.00816717    -0.00013211    -0.00030431     0.00030960
C         0.66078218     0.00266597     0.00932616     0.00002231     0.00010278     0.00034898
H        -1.10971037     0.90014751    -0.39846411    -0.00273720     0.00657703    -0.00290638
H        -1.28045782    -0.80153044    -0.36215934    -0.00195313    -0.00324480    -0.00067879
H         1.10771982     0.88696427    -0.36622036     0.00298950     0.00514703    -0.00152509
H         1.11533119    -0.88544111    -0.38283445     0.00300923    -0.00607780    -0.00273738
     6
  Step:    16            Position(A)                                  Velocity(au)
C        -0.69393898    -0.00938606     0.00901849    -0.00015888    -0.00030514     0.00031222
C         0.66087602     0.00295176     0.01028421     0.00004702     0.00010634     0.00035078
H        -1.11719500     0.91819080    -0.40648101    -0.00272906     0.00660152    -0.00295138
H        -1.28588169    -0.81051438    -0.36399615    -0.00200917    -0.00331604    -0.00066072
H         1.11599806     0.90111782    -0.37036533     0.00305837     0.00518892    -0.00150031
H         1.12357712    -0.90212260    -0.39039643     0.00301288    -0.00610557    -0.00278795
     6
  Step:    17            Position(A)                                  Velocity(au)
C        -0.69441068    -0.01022102     0.00987476    -0.00018638    -0.00030521     0.00031330
C         0.66103932     0.00324760     0.01124467     0.00007291     0.00011015     0.00035085
H        -1.12463621     0.93625272    -0.41460586    -0.00270656     0.00659281    -0.00298606
H        -1.29144645    -0.81966663    -0.36577297    -0.00205633    -0.00336825    -0.00063525
H         1.12444672     0.91534364    -0.37442588     0.00311465     0.00520129    -0.00146414
H         1.13180931    -0.91883385    -0.39808239     0.00300031    -0.00610149    -0.00282870
     6
  Step:    18            Position(A)                                  Velocity(au)
C        -0.69495832    -0.01105531     0.01073202    -0.00021428    -0.00030475     0.00031303
C         0.66127478     0.00355418     0.01220311     0.00009962     0.00011421     0.00034942
H        -1.13199779     0.95424840    -0.42281243    -0.00267185     0.00655508    -0.00301174
H        -1.29712822    -0.82893612    -0.36747048    -0.00209488    -0.00340221    -0.00060306
H         1.13303280     0.92956485    -0.37837304     0.00315933     0.00518691    -0.00141814
H         1.13998650    -0.93549303    -0.40586722     0.00297371    -0.00606930    -0.00286080
     6
  Step:    19            Position(A)                                  Velocity(au)
C        -0.69558264    -0.01188777     0.01158677    -0.00024235    -0.00030395     0.00031154
C         0.66158417     0.00387225     0.01315572     0.00012684     0.00011854     0.00034669
H        -1.13924916     0.97210397    -0.43107777    -0.00262688     0.00649214    -0.00302953
H        -1.30290382    -0.83827410    -0.36907125    -0.00212507    -0.00341881    -0.00056486
H         1.14172583     0.94371205    -0.38218202     0.00319328     0.00514848    -0.00136380
H         1.14807322    -0.95202824    -0.41372876     0.00293511    -0.00601248    -0.00288526
     6
  Step:    20            Position(A)                                  Velocity(au)
C        -0.69628377    -0.01271766     0.01243588    -0.00005190    -0.00005815     0.00005931
C         0.66196848     0.00420249     0.01409922     0.00002962     0.00002363     0.00006582
H        -1.14636481     0.98975543    -0.43938163    -0.00049401     0.00123002    -0.00058365
H        -1.30875071    -0.84763436    -0.37055982    -0.00041218    -0.00065634    -0.00010008
H         1.15049758     0.95772308    -0.38583197     0.00061762     0.00097684    -0.00025004
H         1.15603928    -0.96837667    -0.42164734     0.00055408    -0.00113918    -0.00055727
     6
  Step:    21            Position(A)                                  Velocity(au)
C        -0.69646390    -0.01287519     0.01259387    -0.00007981    -0.00005705     0.00005615
C         0.66208709     0.00427353     0.01427325     0.00005712     0.00002834     0.00006138
H        -1.14763733     0.99298942    -0.44098796    -0.00043604     0.00113350    -0.00059059
H        -1.30990256    -0.84941857    -0.37077058    -0.00042948    -0.00064713    -0.00005364
H         1.15221281     0.96029854    -0.38642757     0.00063598     0.00090501    -0.00018504
H         1.15748144    -0.97137122    -0.42319101     0.00049989    -0.00104923    -0.00057115
     6
  Step:    22            Position(A)                                  Velocity(au)
C        -0.69672027    -0.01302968     0.01274296    -0.00010764    -0.00005593     0.00005281
C         0.66228090     0.00435747     0.01443491     0.00008459     0.00003307     0.00005677
H        -1.14874963     0.99595479    -0.44261170    -0.00037692     0.00103372    -0.00059641
H        -1.31109963    -0.85117364    -0.37085316    -0.00044526    -0.00063510    -0.00000636
H         1.15397590     0.96267280    -0.38684401     0.00065266     0.00082985    -0.00011909
H         1.15877330    -0.97411514    -0.42477112     0.00044425    -0.00095604    -0.00058394
     6
  Step:    23            Position(A)                                  Velocity(au)
C        -0.69705262    -0.01318108     0.01288270    -0.00013536    -0.00005479     0.00004931
C         0.66254972     0.00445438     0.01458376     0.00011197     0.00003781     0.00005202
H        -1.14969877     0.99864305    -0.44424989    -0.00031679     0.00093099    -0.00060118
H        -1.31233781    -0.85289208    -0.37080538    -0.00045954    -0.00062042     0.00004166
H         1.15578233     0.96483719    -0.38707887     0.00066772     0.00075169    -0.00005230
H         1.15991115    -0.97660003    -0.42638474     0.00038734    -0.00085993    -0.00059569
     6
  Step:    24            Position(A)                                  Velocity(au)
C        -0.69746058    -0.01332933     0.01301266    -0.00016293    -0.00005363     0.00004567
C         0.66289328     0.00456426     0.01471942     0.00013923     0.00004255     0.00004713
H        -1.15048225     1.00104657    -0.44589968    -0.00025584     0.00082562    -0.00060493
H        -1.31361299    -0.85456684    -0.37062529    -0.00047233    -0.00060324     0.00009037
H         1.15762781     0.96678397    -0.38713007     0.00068125     0.00067085     0.00001517
H         1.16089175    -0.97881832    -0.42802906     0.00032933    -0.00076121    -0.00060642
     6
  Step:    25            Position(A)                                  Velocity(au)
C        -0.69794370    -0.01347438     0.01313246    -0.00019032    -0.00005244     0.00004189
C         0.66331119     0.00468708     0.01484154     0.00016633     0.00004727     0.00004212
H        -1.15109801     1.00315856    -0.44755840    -0.00019420     0.00071791    -0.00060773
H        -1.31492110    -0.85619134    -0.37031115    -0.00048365    -0.00058374     0.00013967
H         1.15950823     0.96850623    -0.38699589     0.00069332     0.00058765     0.00008322
H         1.16171232    -0.98076326    -0.42970140     0.00027038    -0.00066016    -0.00061620
     6
  Step:    26            Position(A)                                  Velocity(au)
C        -0.69850146    -0.01361616     0.01324174    -0.00021749    -0.00005123     0.00003798
C         0.66380296     0.00482278     0.01494980     0.00019323     0.00005196     0.00003700
H        -1.15154439     1.00497297    -0.44922350    -0.00013204     0.00060813    -0.00060963
H        -1.31625818    -0.85775943    -0.36986142    -0.00049353    -0.00056208     0.00018949
H         1.16141972     0.96999796    -0.38667495     0.00070401     0.00050240     0.00015171
H         1.16237051    -0.98242888    -0.43139919     0.00021065    -0.00055707    -0.00062506
     6
  Step:    27            Position(A)                                  Velocity(au)
C        -0.69913322    -0.01375459     0.01334017    -0.00024443    -0.00005000     0.00003396
C         0.66436802     0.00497125     0.01504392     0.00021991     0.00005660     0.00003179
H        -1.15182016     1.00648456    -0.45089261    -0.00006949     0.00049657    -0.00061069
H        -1.31762032    -0.85926549    -0.36927476    -0.00050199    -0.00053845     0.00023977
H         1.16335861     0.97125398    -0.38616617     0.00071340     0.00041542     0.00022053
H         1.16286439    -0.98381000    -0.43311999     0.00015029    -0.00045222    -0.00063305
     6
  Step:    28            Position(A)                                  Velocity(au)
C        -0.69983830    -0.01388960     0.01342746    -0.00027109    -0.00004872     0.00002983
C         0.66500568     0.00513234     0.01512366     0.00024632     0.00006118     0.00002649
H        -1.15192445     1.00768881    -0.45256348    -0.00000670     0.00038348    -0.00061094
H        -1.31900369    -0.86070434    -0.36855004    -0.00050908    -0.00051302     0.00029044
H         1.16532145     0.97226996    -0.38546880     0.00072156     0.00032701     0.00028957
H         1.16319248    -0.98490219    -0.43486149     0.00008946    -0.00034589    -0.00064022
     6
  Step:    29            Position(A)                                  Velocity(au)
C        -0.70061589    -0.01402107     0.01350333    -0.00029746    -0.00004741     0.00002562
C         0.66571518     0.00530585     0.01518881     0.00027242     0.00006568     0.00002112
H        -1.15185678     1.00858192    -0.45423399     0.00005621     0.00026914    -0.00061045
H        -1.32040460    -0.86207133    -0.36768630    -0.00051484    -0.00048599     0.00034140
H         1.16730501     0.97304245    -0.38458242     0.00072859     0.00023748     0.00035872
H         1.16335368    -0.98570175    -0.43662151     0.00002831    -0.00023834    -0.00064662
     6
  Step:    30            Position(A)                                  Velocity(au)
C        -0.70146515    -0.01414889     0.01356756    -0.00032349    -0.00004605     0.00002132
C         0.66649564     0.00549156     0.01523919     0.00029820     0.00007009     0.00001570
H        -1.15161704     1.00916081    -0.45590218     0.00011909     0.00015380    -0.00060927
H        -1.32181946    -0.86336231    -0.36668284    -0.00051932    -0.00045753     0.00039259
H         1.16930629     0.97356878    -0.38350687     0.00073457     0.00014713     0.00042786
H         1.16334730    -0.98620571    -0.43839799    -0.00003303    -0.00012983    -0.00065227
     6
  Step:    31            Position(A)                                  Velocity(au)
C        -0.70238512    -0.01427295     0.01361993    -0.00034916    -0.00004465     0.00001696
C         0.66734611     0.00568919     0.01527466     0.00032361     0.00007440     0.00001022
H        -1.15120547     1.00942311    -0.45756623     0.00018181     0.00003772    -0.00060745
H        -1.32324487    -0.86457366    -0.36553914    -0.00052258    -0.00042784     0.00044392
H         1.17132253     0.97384712    -0.38224233     0.00073958     0.00005627     0.00049689
H         1.16317302    -0.98641179    -0.44018894    -0.00009442    -0.00002061    -0.00065724
     6
  Step:    32            Position(A)                                  Velocity(au)
C        -0.70337477    -0.01439310     0.01366029    -0.00037444    -0.00004320     0.00001253
C         0.66826555     0.00589845     0.01529511     0.00034862     0.00007858     0.00000472
H        -1.15062268     1.00936712    -0.45922448     0.00024425    -0.00007885    -0.00060506
H        -1.32467758    -0.86570225    -0.36425493    -0.00052469    -0.00039710     0.00049533
H         1.17335124     0.97387652    -0.38078929     0.00074373    -0.00003479     0.00056568
H         1.16283091    -0.98631844    -0.44199256    -0.00015571     0.00008904    -0.00066156
     6
  Step:    33            Position(A)                                  Velocity(au)
C        -0.70443299    -0.01450920     0.01368848    -0.00039929    -0.00004168     0.00000807
C         0.66925281     0.00611899     0.01530048     0.00037320     0.00008264    -0.00000080
H        -1.14986963     1.00899188    -0.46087543     0.00030627    -0.00019564    -0.00060215
H        -1.32611450    -0.86674548    -0.36283008    -0.00052570    -0.00036551     0.00054673
H         1.17539015     0.97365684    -0.37914851     0.00074710    -0.00012575     0.00063414
H         1.16232142    -0.98592479    -0.44380719    -0.00021677     0.00019889    -0.00066531
     6
  Step:    34            Position(A)                                  Velocity(au)
C        -0.70555859    -0.01462108     0.01370442    -0.00042369    -0.00004011     0.00000357
C         0.67030667     0.00635042     0.01529072     0.00039731     0.00008655    -0.00000633
H        -1.14894763     1.00829710    -0.46251775     0.00036774    -0.00031242    -0.00059879
H        -1.32755276    -0.86770128    -0.36126475    -0.00052570    -0.00033325     0.00059804
H         1.17743732     0.97318878    -0.37732106     0.00074981    -0.00021628     0.00070214
H         1.16164537    -0.98523068    -0.44563128    -0.00027745     0.00030866    -0.00066852
     6
  Step:    35            Position(A)                                  Velocity(au)
C        -0.70675026    -0.01472859     0.01370802    -0.00044761    -0.00003848    -0.00000094
C         0.67142578     0.00659233     0.01526585     0.00042091     0.00009029    -0.00001185
H        -1.14785835     1.00728321    -0.46415033     0.00042855    -0.00042890    -0.00059505
H        -1.32898969    -0.86856812    -0.35955928    -0.00052477    -0.00030053     0.00064918
H         1.17949106     0.97247395    -0.37530832     0.00075197    -0.00030608     0.00076959
H         1.16080397    -0.98423665    -0.44746346    -0.00033763     0.00041811    -0.00067126
     6
  Step:    36            Position(A)                                  Velocity(au)
C        -0.70800665    -0.01483155     0.01369927    -0.00047100    -0.00003679    -0.00000546
C         0.67260873     0.00684426     0.01522590     0.00044398     0.00009387    -0.00001735
H        -1.14660381     1.00595134    -0.46577221     0.00048855    -0.00054484    -0.00059101
H        -1.33042287    -0.86934497    -0.35771424    -0.00052300    -0.00026753     0.00070008
H         1.18155002     0.97151479    -0.37311202     0.00075369    -0.00039481     0.00083635
H         1.15979877    -0.98294393    -0.44930254    -0.00039717     0.00052697    -0.00067360
     6
  Step:    37            Position(A)                                  Velocity(au)
C        -0.70932630    -0.01492979     0.01367815    -0.00049385    -0.00003503    -0.00000997
C         0.67385399     0.00710573     0.01517097     0.00046646     0.00009726    -0.00002281
H        -1.14518638     1.00430336    -0.46738268     0.00054761    -0.00065996    -0.00058675
H        -1.33185008    -0.87003131    -0.35573038    -0.00052046    -0.00023444     0.00075066
H         1.18361316     0.97031466    -0.37073415     0.00075509    -0.00048215     0.00090231
H         1.15863176    -0.98135451    -0.45114752    -0.00045592     0.00063498    -0.00067561
     6
  Step:    38            Position(A)                                  Velocity(au)
C        -0.71070763    -0.01502314     0.01364471    -0.00051611    -0.00003321    -0.00001446
C         0.67515993     0.00737621     0.01510117     0.00048834     0.00010046    -0.00002821
H        -1.14360879     1.00234189    -0.46898128     0.00060562    -0.00077397    -0.00058237
H        -1.33326940    -0.87062719    -0.35360870    -0.00051727    -0.00020146     0.00080084
H         1.18567981     0.96887781    -0.36817707     0.00075632    -0.00056776     0.00096736
H         1.15730522    -0.97947106    -0.45299759    -0.00051376     0.00074188    -0.00067737
     6
  Step:    39            Position(A)                                  Velocity(au)
C        -0.71214902    -0.01511142     0.01359904    -0.00053775    -0.00003133    -0.00001891
C         0.67652484     0.00765515     0.01501669     0.00050957     0.00010344    -0.00003354
H        -1.14187413     1.00007032    -0.47056779     0.00066242    -0.00088661    -0.00057796
H        -1.33467915    -0.87113313    -0.35135040    -0.00051351    -0.00016876     0.00085055
H         1.18774963     0.96720945    -0.36544342     0.00075749    -0.00065131     0.00103139
H         1.15582189    -0.97729701    -0.45485220    -0.00057053     0.00084738    -0.00067897
     6
  Step:    40            Position(A)                                  Velocity(au)
C        -0.71364872    -0.01519448     0.01354126    -0.00036890    -0.00001940    -0.00001539
C         0.67794687     0.00794195     0.01491776     0.00034999     0.00007012    -0.00002560
H        -1.13998589     0.99749281    -0.47214231     0.00047396    -0.00065863    -0.00037874
H        -1.33607792    -0.87155020    -0.34895684    -0.00033625    -0.00009015     0.00059402
H         1.18982270     0.96531567    -0.36253615     0.00050096    -0.00048358     0.00072248
H         1.15418484    -0.97483657    -0.45671104    -0.00041337     0.00062801    -0.00044930
     6
  Step:    41            Position(A)                                  Velocity(au)
C        -0.71468576    -0.01524485     0.01349320    -0.00038932    -0.00001742    -0.00001973
C         0.67893156     0.00813733     0.01484066     0.00036993     0.00007269    -0.00003075
H        -1.13861491     0.99554125    -0.47317223     0.00052821    -0.00076795    -0.00037460
H        -1.33699140    -0.87175308    -0.34726559    -0.00033175    -0.00005850     0.00064268
H         1.19119449     0.96388411    -0.36047529     0.00050244    -0.00056242     0.00078431
H         1.15297931    -0.97297848    -0.45794179    -0.00046784     0.00073021    -0.00045086
     6
  Step:    42            Position(A)                                  Velocity(au)
C        -0.71577799    -0.01528975     0.01343334    -0.00040925    -0.00001540    -0.00002401
C         0.67997008     0.00833953     0.01474959     0.00038935     0.00007510    -0.00003581
H        -1.13709701     0.99329270    -0.47419107     0.00058134    -0.00087569    -0.00037069
H        -1.33789232    -0.87187013    -0.34544190    -0.00032711    -0.00002747     0.00069085
H         1.19257063     0.96223968    -0.35824657     0.00050421    -0.00063910     0.00084520
H         1.15162614    -0.97084286    -0.45917690    -0.00052127     0.00083084    -0.00045254
     6
  Step:    43            Position(A)                                  Velocity(au)
C        -0.71692403    -0.01532909     0.01336186    -0.00042866    -0.00001336    -0.00002822
C         0.68106098     0.00854810     0.01464483     0.00040821     0.00007734    -0.00004076
H        -1.13543541     0.99075193    -0.47519962     0.00063324    -0.00098153    -0.00036714
H        -1.33878042    -0.87190331    -0.34348717    -0.00032243     0.00000275     0.00073848
H         1.19395212     0.96038872    -0.35585269     0.00050641    -0.00071330     0.00090504
H         1.15012834    -0.96843440    -0.46041684    -0.00057355     0.00092962    -0.00045444
     6
  Step:    44            Position(A)                                  Velocity(au)
C        -0.71812243    -0.01536280     0.01327899    -0.00044752    -0.00001128    -0.00003234
C         0.68220269     0.00876253     0.01452668     0.00042649     0.00007940    -0.00004559
H        -1.13363369     0.98792449    -0.47619903     0.00068376    -0.00108518    -0.00036406
H        -1.33965574    -0.87185511    -0.34140298    -0.00031781     0.00003196     0.00078550
H         1.19534032     0.95833847    -0.35329667     0.00050919    -0.00078468     0.00096372
H         1.14848927    -0.96575855    -0.46166233    -0.00062452     0.00102626    -0.00045666
     6