
 Primary working directories    : int
 Secondary working directories  : int
 Wavefunction directory         : /home/islee/unixmd-develop/39-unixmd-new_code_structure-change_mqc_structure/examples/molpro_casscf/TRAJ.shxf/unixmd/scr_qm/wfu/
 Main file repository           : /home/islee/unixmd-develop/39-unixmd-new_code_structure-change_mqc_structure/examples/molpro_casscf/TRAJ.shxf/unixmd/scr_qm/int/

 SHA1      : e0c7f9aab6313248a7a7ade58897d3f3adec42d9
 NAME      : 2015.1.15
 ARCHNAME  : linux/x86_64
 FC        : /opt/intel/composer_xe_2015.1.133/bin/intel64/ifort
 BLASLIB   : -Wl,-_start-group /opt/intel/mkl/lib/intel64/libmkl_intel_ilp64.a /opt/intel/mkl/lib/intel64/libmkl_intel_thread.a /opt/intel/mkl/lib/intel64/libmkl_core.a -Wl,-_end-group
 id        : csmmolpro

 Nodes     nprocs
 thor         1

 Using customized tuning parameters: mindgm=1; mindgv=20; mindgc=4; mindgr=1; noblas=0; minvec=7
 default implementation of scratch files=df  

 file,1,int.int,delete
 file,2,wf.wfu,unknown
 restart,2
 
 geometry={angstrom
 Including file /home/islee/unixmd-develop/39-unixmd-new_code_structure-change_mqc_structure/examples/molpro_casscf/TRAJ.shxf/unixmd/scr_qm/geometry.xyz
 >6
 >C       -0.69687867    -0.00405296    -0.05757911
 >C        0.66072048     0.00547606    -0.03579023
 >H       -1.30077832     0.91109746    -0.00950268
 >H       -1.25801723    -0.89465751    -0.05379286
 >H        1.15597797     0.91744434    -0.06817289
 >H        1.27619905    -0.92084208    -0.05716079
 }
 
 symmetry nosym
 basis=6-31G
 
 {mcscf,maxit=20,energy=1e-08,gradient=1e-06,step=0.01
 frozen,0
 closed,7
 occ,9
 start,2140.2
 orbital,2140.2
 wf,16,1,0
 state,2
 cpmcscf,grad,1.1,spin=0,accu=1e-07,record=5100.3
 cpmcscf,nacm,1.1,2.1,spin=0,accu=1e-07,record=5102.3
 }
 en(1) = ENERGY(1)
 en(2) = ENERGY(2)
 
 
 {force
 samc,5100.3
 }
 
 {force
 samc,5102.3
 }
 

 Variables initialized (889), CPU time= 0.01 sec
 Commands  initialized (702), CPU time= 0.01 sec, 572 directives.
 Default parameters read. Elapsed time= 0.07 sec

 Checking input...
 Passed
1


                                         ***  PROGRAM SYSTEM MOLPRO  ***
                                       Copyright, TTI GmbH Stuttgart, 2015
                                    Version 2015.1 linked Jan  2 2017 18:18:08


 **********************************************************************************************************************************
 LABEL *                                                                                 
  64 bit serial version                                                                  DATE: 22-Oct-19          TIME: 02:57:01  
 **********************************************************************************************************************************

 SHA1:             e0c7f9aab6313248a7a7ade58897d3f3adec42d9
 **********************************************************************************************************************************

 Variable memory set to  500000000 words,  buffer space   230000 words



 Temporary file  1  int.int  assigned.  Implementation=df  
 Permanent file  2  wf.wfu   assigned.  Implementation=df  

 PROGRAM * RESTART 



 **********************************************************************************************************************************
 DATASETS  * FILE   NREC   LENGTH (MB)   RECORD NAMES
              2       1        0.03       500   
                                          VAR  

 PROGRAMS   *        TOTAL   RESTART
 CPU TIMES  *         0.15      0.00
 REAL TIME  *         0.16 SEC
 DISK USED  *         0.03 MB      
 **********************************************************************************************************************************

Geometry recognized as XYZ

 SETTING BASIS          =    6-31G


 Recomputing integrals since basis changed


 Using spherical harmonics

 Library entry C      S 6-31G                selected for orbital group  1
 Library entry C      P 6-31G                selected for orbital group  1
 Library entry H      S 6-31G                selected for orbital group  2


 PROGRAM * SEWARD (Integral evaluation for generally contracted gaussian basis sets)     Author: Roland Lindh, 1990

 Geometry written to block  1 of record 700


 Point group  C1  



 ATOMIC COORDINATES

 NR  ATOM    CHARGE       X              Y              Z

   1  C       6.00   -1.316909828   -0.007658984   -0.108808748
   2  C       6.00    1.248580752    0.010348254   -0.067633733
   3  H       1.00   -2.458114774    1.721724672   -0.017957463
   4  H       1.00   -2.377308025   -1.690657669   -0.101653773
   5  H       1.00    2.184481769    1.733718537   -0.128828091
   6  H       1.00    2.411666685   -1.740139335   -0.108018238

 Bond lengths in Bohr (Angstrom)

 1-2  2.565884167  1-3  2.073974569  1-4  1.989215951  2-5  1.962055197  2-6  2.102048190
     ( 1.357807427)     ( 1.097500078)     ( 1.052647749)     ( 1.038274897)     ( 1.112355999)

 Bond angles

  1-2-5  118.85475500   1-2-6  123.16646644   2-1-3  122.92979134   2-1-4  122.60685454

  3-1-4  114.33096656   5-2-6  117.83454235

 NUCLEAR CHARGE:                   16
 NUMBER OF PRIMITIVE AOS:          60
 NUMBER OF SYMMETRY AOS:           60
 NUMBER OF CONTRACTIONS:           26   (  26A   )
 NUMBER OF CORE ORBITALS:           2   (   2A   )
 NUMBER OF VALENCE ORBITALS:       12   (  12A   )


 NUCLEAR REPULSION ENERGY   33.16002425

 Eigenvalues of metric

         1 0.104E-01 0.181E-01 0.385E-01 0.469E-01 0.731E-01 0.249E+00 0.253E+00 0.284E+00


 Contracted 2-electron integrals neglected if value below      1.0D-11
 AO integral compression algorithm  1   Integral accuracy      1.0D-11

     0.524 MB (compressed) written to integral file ( 84.6%)


 NUMBER OF SORTED TWO-ELECTRON INTEGRALS:      61776.     BUFFER LENGTH:  32768
 NUMBER OF SEGMENTS:   1  SEGMENT LENGTH:      61776      RECORD LENGTH: 524288

 Memory used in sort:       0.62 MW

 SORT1 READ       85775. AND WROTE       60132. INTEGRALS IN      1 RECORDS. CPU TIME:     0.00 SEC, REAL TIME:     0.00 SEC
 SORT2 READ       60132. AND WROTE       61776. INTEGRALS IN      2 RECORDS. CPU TIME:     0.01 SEC, REAL TIME:     0.01 SEC

 FILE SIZES:   FILE 1:    19.7 MBYTE,  FILE 4:     4.2 MBYTE,   TOTAL:     23.9 MBYTE

 OPERATOR DM      FOR CENTER  0  COORDINATES:    0.000000    0.000000    0.000000


 **********************************************************************************************************************************
 DATASETS  * FILE   NREC   LENGTH (MB)   RECORD NAMES
              1      19       19.49       500      610      700      900      950      970     1000      129      960     1100   
                                          VAR    BASINP    GEOM    SYMINP    ZMAT    AOBASIS   BASIS     P2S    ABASIS      S 
                                         1400     1410     1200     1210     1080     1600     1650     1300     1700   
                                           T        V       H0       H01     AOSYM     SMH    MOLCAS    ERIS     OPER   

              2       5        1.48       500      610      700     1000      520   
                                          VAR    BASINP    GEOM     BASIS   MCVARS    

 PROGRAMS   *        TOTAL       INT   RESTART
 CPU TIMES  *         0.38      0.23      0.00
 REAL TIME  *         0.62 SEC
 DISK USED  *        25.45 MB      
 **********************************************************************************************************************************


 PROGRAM * MULTI (Direct Multiconfiguration SCF)       Authors: P.J. Knowles, H.-J. Werner (1984)     S.T. Elbert (1988)


 Number of closed-shell orbitals:   7 (   7 )
 Number of active  orbitals:        2 (   2 )
 Number of external orbitals:      17 (  17 )

 State symmetry 1

 Number of electrons:     2    Spin symmetry=Singlet   Space symmetry=1
 Number of states:        2
 Number of CSFs:          3   (4 determinants, 4 intermediate states)

 Orbital guess generated from atomic densities. Full valence occupancy:    8

 Wavefunction dump at record             2140.2

 Convergence thresholds  0.10E-05 (gradient)  0.10E-07 (energy)  0.10E-01 (step length)

 Weight factors for state symmetry  1:    0.50000   0.50000

 Number of orbital rotations:      167   (    14 Core/Active    119 Core/Virtual   0 Active/Active     34 Active/Virtual)
 Total number of variables:        175


 ITER. MIC  NCI  NEG     ENERGY(VAR)     ENERGY(PROJ)   ENERGY CHANGE     GRAD(0)  GRAD(ORB)   GRAD(CI)     STEP       TIME

   1   21    7    0     -77.81044112     -77.83174771   -0.02130659    0.20267028 0.00003406 0.00000000  0.15D+00      0.08
   2   24   13    0     -77.83210185     -77.83212862   -0.00002676    0.00717373 0.00000001 0.00000000  0.67D-02      0.11
   3   20   13    0     -77.83212866     -77.83212866   -0.00000000    0.00001642 0.00000009 0.00000000  0.52D-04      0.14
   4   16   10    0     -77.83212866     -77.83212866    0.00000000    0.00000009 0.00000002 0.00000000  0.96D-07      0.16

 ** WVFN ****  CONVERGENCE REACHED, FINAL GRADIENT:  0.18D-07

 Solving MCSCF z-vector equations for state  1.1, requested accuracy=      0.10D-06
 Convergence reached in  16 iterations ( 16 expansion vectors), accuracy=  0.75D-07

 SA-Gradient information saved on record      5100.3

 SOLVING CP-MCSCF NACM: 2.1 - 1.1
 Convergence reached in  19 iterations ( 19 expansion vectors), accuracy=  0.23D-07

 SA-Gradient information saved on record      5102.3



 Results for state 1.1
 =====================

 !MCSCF STATE 1.1 Energy              -78.022236701988
 Nuclear energy                        33.16002425
 Kinetic energy                        78.04231598
 One electron energy                 -169.59367160
 Two electron energy                   58.41141065
 Virial ratio                           1.99974271

 !MCSCF STATE 1.1 Dipole moment        -0.00602661     0.00528916    -0.00087621
 Dipole moment /Debye                  -0.01531712     0.01344282    -0.00222697

 Results for state 2.1
 =====================

 !MCSCF STATE 2.1 Energy              -77.642020614634
 Nuclear energy                        33.16002425
 Kinetic energy                        78.16348174
 One electron energy                 -168.99432153
 Two electron energy                   58.19227666
 Virial ratio                           1.99332858

 !MCSCF STATE 2.1 Dipole moment        -0.01869598     0.00120270    -0.00424091
 Dipole moment /Debye                  -0.04751734     0.00305676    -0.01077862

 State-averaged charge density matrix saved on record  2140.2 (density set 1)

 !MCSCF expec         <1.1|DMX|1.1>    -0.006026611505 au =    -0.015317115268 Debye
 !MCSCF trans         <2.1|DMX|1.1>    -1.539661462951 au =    -3.913172781006 Debye
 !MCSCF expec         <2.1|DMX|2.1>    -0.018695982492 au =    -0.047517335182 Debye

 !MCSCF expec         <1.1|DMY|1.1>     0.005289159623 au =     0.013442822314 Debye
 !MCSCF trans         <2.1|DMY|1.1>    -0.010693822388 au =    -0.027179205106 Debye
 !MCSCF expec         <2.1|DMY|2.1>     0.001202698818 au =     0.003056755261 Debye

 !MCSCF expec         <1.1|DMZ|1.1>    -0.000876214013 au =    -0.002226968010 Debye
 !MCSCF trans         <2.1|DMZ|1.1>    -0.061642635616 au =    -0.156669689830 Debye
 !MCSCF expec         <2.1|DMZ|2.1>    -0.004240912287 au =    -0.010778617849 Debye


 Natural orbital dump (state averaged) at molpro section  2140.2    (Orbital set 2)



 **********************************************************************************************************************************
 DATASETS  * FILE   NREC   LENGTH (MB)   RECORD NAMES
              1      20       19.88       500      610      700      900      950      970     1000      129      960     1100   
                                          VAR    BASINP    GEOM    SYMINP    ZMAT    AOBASIS   BASIS     P2S    ABASIS      S 
                                         1400     1410     1200     1210     1080     1600     1650     1300     1700     1380   
                                           T        V       H0       H01     AOSYM     SMH    MOLCAS    ERIS     OPER     JKOP   

              2       6        4.02       500      610      700     1000      520     2140   
                                          VAR    BASINP    GEOM     BASIS   MCVARS    MCSCF   

              3       3        0.05      1000     5100     5102   
                                         BASIS   CPSAMC   CPSAMC    

 PROGRAMS   *        TOTAL     MCSCF       INT   RESTART
 CPU TIMES  *         0.57      0.18      0.23      0.00
 REAL TIME  *         0.91 SEC
 DISK USED  *        28.84 MB      
 **********************************************************************************************************************************
 SETTING EN(1)          =       -78.02223670  HARTREE                         
 SETTING EN(2)          =       -77.64202061  HARTREE                         


 PROGRAM * FORCE (Gradient of the energy)

 SA-MCSCF information from    5100.3
 Orbitals from record         2140.2

 Number of closed-shell orbitals:  7 (  7 )
 Number of active orbitals:        2 (  2 )
 Number of occupied orbitals:      9 (  9 )

 Number of electrons= 16     Singlet     Space symmetry=1      Wavefunction type: SA-MCSCF


 End of calculation of the energy gradient  ,IREST=   0


 SA-MC GRADIENT FOR STATE 1.1

 Atom          dE/dx               dE/dy               dE/dz

   1        -0.001324545        -0.018314178        -0.008472321
   2         0.010457880         0.038062101         0.008946200
   3        -0.014029354         0.010850301         0.011871112
   4         0.006194475         0.015432407        -0.007034791
   5        -0.018753553        -0.023465240        -0.011115841
   6         0.017455097        -0.022565392         0.005805642

 Nuclear force contribution to virial =         0.029023400


 **********************************************************************************************************************************
 DATASETS  * FILE   NREC   LENGTH (MB)   RECORD NAMES
              1      20       19.88       500      610      700      900      950      970     1000      129      960     1100   
                                          VAR    BASINP    GEOM    SYMINP    ZMAT    AOBASIS   BASIS     P2S    ABASIS      S 
                                         1400     1410     1200     1210     1080     1600     1650     1300     1700     1380   
                                           T        V       H0       H01     AOSYM     SMH    MOLCAS    ERIS     OPER     JKOP   

              2       6        4.02       500      610      700     1000      520     2140   
                                          VAR    BASINP    GEOM     BASIS   MCVARS    MCSCF   

              3       3        0.05      1000     5100     5102   
                                         BASIS   CPSAMC   CPSAMC    

 PROGRAMS   *        TOTAL     FORCE     MCSCF       INT   RESTART
 CPU TIMES  *         0.72      0.16      0.18      0.23      0.00
 REAL TIME  *         1.07 SEC
 DISK USED  *        28.84 MB      
 **********************************************************************************************************************************


 PROGRAM * FORCE (Gradient of the energy)

 SA-MCSCF information from    5102.3
 Orbitals from record         2140.2

 Number of closed-shell orbitals:  7 (  7 )
 Number of active orbitals:        2 (  2 )
 Number of occupied orbitals:      9 (  9 )

 Number of electrons= 16     Singlet     Space symmetry=1      Wavefunction type: SA-MCSCF


 End of calculation of the energy gradient  ,IREST=   0


 SA-MC NACME FOR STATES 1.1 - 2.1

 Atom          dE/dx               dE/dy               dE/dz

   1        -0.251758775        -0.002376274        -0.020088932
   2        -0.259999373        -0.004904681        -0.018844437
   3         0.012526772        -0.004553592        -0.014420510
   4         0.012391132         0.005782526         0.027259988
   5         0.009819523         0.006968371        -0.014554447
   6         0.013419306        -0.004157456         0.025912261



 **********************************************************************************************************************************
 DATASETS  * FILE   NREC   LENGTH (MB)   RECORD NAMES
              1      20       19.88       500      610      700      900      950      970     1000      129      960     1100   
                                          VAR    BASINP    GEOM    SYMINP    ZMAT    AOBASIS   BASIS     P2S    ABASIS      S 
                                         1400     1410     1200     1210     1080     1600     1650     1300     1700     1380   
                                           T        V       H0       H01     AOSYM     SMH    MOLCAS    ERIS     OPER     JKOP   

              2       6        4.02       500      610      700     1000      520     2140   
                                          VAR    BASINP    GEOM     BASIS   MCVARS    MCSCF   

              3       3        0.05      1000     5100     5102   
                                         BASIS   CPSAMC   CPSAMC    

 PROGRAMS   *        TOTAL     FORCE     FORCE     MCSCF       INT   RESTART
 CPU TIMES  *         0.86      0.14      0.16      0.18      0.23      0.00
 REAL TIME  *         1.22 SEC
 DISK USED  *        28.84 MB      
 **********************************************************************************************************************************

 MCSCF/6-31G energy=    -77.642020614634
 **********************************************************************************************************************************
 Molpro calculation terminated
 Variable memory released
