     6
  Step:  1000            Position(A)                                  Velocity(au)
C         1.51393063     2.24643586     2.25085897     0.00005267     0.00000719    -0.00002241
N         2.79157036     2.16454028     2.16881571     0.00004138    -0.00004008     0.00020777
H         1.04797163     2.87723628     2.99206430    -0.00105380    -0.00026899    -0.00052285
H         0.93802543     1.71969913     1.51738482    -0.00026722     0.00002181    -0.00001972
H         3.36813750     2.83945300     2.65513542     0.00093807     0.00025578    -0.00106332
H         3.22185523     1.41635980     1.64948333    -0.00081970     0.00046261    -0.00101427
