     6
  Step:     0            Position(A)                                  Velocity(au)
C         1.51410321     2.28236325     2.19884472     0.00002671    -0.00010330     0.00004871
N         2.79315507     2.16099439     2.21554559    -0.00004087     0.00017187     0.00013434
H         0.99875994     1.66114799     2.93216049    -0.00100507     0.00019113    -0.00024745
H         0.93234643     2.90587974     1.48786410     0.00089679    -0.00006276    -0.00027862
H         3.46583750     2.48496338     1.50579636    -0.00034025    -0.00092241    -0.00072712
H         3.15630893     1.42158828     2.85795645     0.00068502    -0.00036011    -0.00118705
     6
  Step:     1            Position(A)                                  Velocity(au)
C         1.51407604     2.28209199     2.19897803    -0.00004657    -0.00009511     0.00004881
N         2.79313074     2.16145174     2.21591786     0.00002311     0.00016265     0.00013789
H         0.99599737     1.66171359     2.93142752    -0.00101474     0.00022239    -0.00028875
H         0.93487372     2.90563940     1.48714823     0.00095098    -0.00011275    -0.00024534
H         3.46482977     2.48241445     1.50385651    -0.00039688    -0.00094157    -0.00069177
H         3.15817771     1.42069782     2.85460268     0.00068132    -0.00029167    -0.00126493
     6
  Step:     2            Position(A)                                  Velocity(au)
C         1.51384848     2.28184309     2.19911166    -0.00011976    -0.00008696     0.00004895
N         2.79328146     2.16188394     2.21629977     0.00008707     0.00015349     0.00014139
H         0.99321008     1.66236430     2.93058126    -0.00102325     0.00025329    -0.00033017
H         0.93754755     2.90526309     1.48652231     0.00100379    -0.00016206    -0.00021303
H         3.46366685     2.47981374     1.50201291    -0.00045355    -0.00096019    -0.00065691
H         3.16003524     1.41999305     2.85103824     0.00067691    -0.00022457    -0.00134093
     6
  Step:     3            Position(A)                                  Velocity(au)
C         1.51342107     2.28161641     2.19924576    -0.00019264    -0.00007887     0.00004916
N         2.79360694     2.16229122     2.21669113     0.00015083     0.00014444     0.00014481
H         0.99040099     1.66309888     2.92962174    -0.00103078     0.00028363    -0.00037145
H         0.94036366     2.90475305     1.48598312     0.00105487    -0.00021040    -0.00018209
H         3.46234923     2.47716295     1.50026372    -0.00050981    -0.00097810    -0.00062291
H         3.16187990     1.41946961     2.84726883     0.00067204    -0.00015931    -0.00141465
     6
  Step:     4            Position(A)                                  Velocity(au)
C         1.51279491     2.28141175     2.19938051    -0.00026502    -0.00007087     0.00004944
N         2.79410638     2.16267394     2.21709178     0.00021422     0.00013554     0.00014817
H         0.98757249     1.66391555     2.92854971    -0.00103755     0.00031323    -0.00041233
H         0.94331687     2.90411237     1.48552643     0.00110389    -0.00025747    -0.00015289
H         3.46087856     2.47446431     1.49860606    -0.00056527    -0.00099510    -0.00059014
H         3.16371077     1.41912174     2.84330122     0.00066695    -0.00009643    -0.00148570
     6
  Step:     5            Position(A)                                  Velocity(au)
C         1.51197161     2.28122883     2.19951615    -0.00033672    -0.00006298     0.00004981
N         2.79477853     2.16303251     2.21750149     0.00027705     0.00012681     0.00015145
H         0.98472638     1.66481203     2.92736662    -0.00104376     0.00034191    -0.00045254
H         0.94640107     2.90334492     1.48514693     0.00115051    -0.00030297    -0.00012582
H         3.45925765     2.47172053     1.49703608    -0.00061949    -0.00101102    -0.00055898
H         3.16552760     1.41894222     2.83914319     0.00066190    -0.00003645    -0.00155372
     6
  Step:     6            Position(A)                                  Velocity(au)
C         1.51095331     2.28106732     2.19965292    -0.00040754    -0.00005522     0.00005028
N         2.79562165     2.16336750     2.21792008     0.00033917     0.00011830     0.00015465
H         0.98186393     1.66578554     2.92607465    -0.00104962     0.00036949    -0.00049183
H         0.94960929     2.90245537     1.48483827     0.00119442    -0.00034661    -0.00010128
H         3.45749043     2.46893481     1.49554889    -0.00067208    -0.00102569    -0.00052978
H         3.16733084     1.41892239     2.83480354     0.00065714     0.00002009    -0.00161835
     6
  Step:     7            Position(A)                                  Velocity(au)
C         1.50974267     2.28092683     2.19979115    -0.00047731    -0.00004761     0.00005088
N         2.79663354     2.16367954     2.21834732     0.00040041     0.00011005     0.00015777
H         0.97898579     1.66683283     2.92467669    -0.00105534     0.00039578    -0.00052994
H         0.95293366     2.90144921     1.48459302     0.00123531    -0.00038812    -0.00007964
H         3.45558189     2.46611080     1.49413861    -0.00072264    -0.00103894    -0.00050291
H         3.16912164     1.41905210     2.83029206     0.00065293     0.00007265    -0.00167923
     6
  Step:     8            Position(A)                                  Velocity(au)
C         1.50834281     2.28080691     2.19993118    -0.00054584    -0.00004019     0.00005161
N         2.79781156     2.16396939     2.21878299     0.00046060     0.00010209     0.00016081
H         0.97609205     1.66795016     2.92317631    -0.00106114     0.00042063    -0.00056661
H         0.95636546     2.90033266     1.48440270     0.00127285    -0.00042720    -0.00006131
H         3.45353815     2.46325260     1.49279837    -0.00077078    -0.00105061    -0.00047873
H         3.17090187     1.41931973     2.82561946     0.00064953     0.00012068    -0.00173602
     6
  Step:     9            Position(A)                                  Velocity(au)
C         1.50675735     2.28070704     2.20007341    -0.00061297    -0.00003296     0.00005249
N         2.79915264     2.16423789     2.21922685     0.00051959     0.00009446     0.00016377
H         0.97318218     1.66913336     2.92157778    -0.00106724     0.00044387    -0.00060160
H         0.95989518     2.89911274     1.48425773     0.00130678    -0.00046359    -0.00004667
H         3.45136632     2.46036475     1.49152032    -0.00081613    -0.00106055    -0.00045760
H         3.17267405     1.41971213     2.82079739     0.00064718     0.00016363    -0.00178839
     6
  Step:    10            Position(A)                                  Velocity(au)
C         1.50499036     2.28062666     2.20021828    -0.00067853    -0.00002595     0.00005355
N         2.80065330     2.16448601     2.21967867     0.00057724     0.00008720     0.00016663
H         0.97025507     1.67037780     2.91988605    -0.00107386     0.00046536    -0.00063465
H         0.96351253     2.89779716     1.48414744     0.00133681    -0.00049703    -0.00003614
H         3.44907455     2.45745219     1.49029568    -0.00085832    -0.00106861    -0.00043984
H         3.17444141     1.42021467     2.81583834     0.00064613     0.00020095    -0.00183605
     6
  Step:    11            Position(A)                                  Velocity(au)
C         1.50304630     2.28056513     2.20036630    -0.00074238    -0.00001918     0.00005480
N         2.80230968     2.16471482     2.22013820     0.00063341     0.00008036     0.00016941
H         0.96730898     1.67167850     2.91810672    -0.00108122     0.00048495    -0.00066553
H         0.96720649     2.89639435     1.48406008     0.00136268    -0.00052727    -0.00003010
H         3.44667196     2.45452028     1.48911474    -0.00089702    -0.00107464    -0.00042579
H         3.17620786     1.42081117     2.81075559     0.00064661     0.00023208    -0.00187872
     6
  Step:    12            Position(A)                                  Velocity(au)
C         1.50093009     2.28052178     2.20051802    -0.00080438    -0.00001267     0.00005627
N         2.80411755     2.16492550     2.22060518     0.00068797     0.00007396     0.00017208
H         0.96434160     1.67303011     2.91624609    -0.00108955     0.00050254    -0.00069400
H         0.97096534     2.89491339     1.48398281     0.00138416    -0.00055408    -0.00002896
H         3.44416857     2.45157477     1.48796694    -0.00093188    -0.00107848    -0.00041574
H         3.17797790     1.42148395     2.80556318     0.00064887     0.00025645    -0.00191615
     6
  Step:    13            Position(A)                                  Velocity(au)
C         1.49864696     2.28049585     2.20067406    -0.00086439    -0.00000644     0.00005798
N         2.80607234     2.16511934     2.22107936     0.00074080     0.00006806     0.00017467
H         0.96134998     1.67442700     2.91431106    -0.00109907     0.00051802    -0.00071982
H         0.97477676     2.89336394     1.48390166     0.00140103    -0.00057726    -0.00003314
H         3.44157532     2.44862180     1.48684094    -0.00096259    -0.00108001    -0.00040998
H         3.17975666     1.42221378     2.80027576     0.00065309     0.00027352    -0.00194812
     6
  Step:    14            Position(A)                                  Velocity(au)
C         1.49620255     2.28048655     2.20083511    -0.00092229    -0.00000052     0.00005995
N         2.80816917     2.16529773     2.22156047     0.00079180     0.00006269     0.00017715
H         0.95833056     1.67586330     2.91230920    -0.00111000     0.00053135    -0.00074276
H         0.97862787     2.89175621     1.48380158     0.00141309    -0.00059664    -0.00004303
H         3.43890396     2.44566792     1.48572469    -0.00098885    -0.00107907    -0.00040872
H         3.18154978     1.42297992     2.79490849     0.00065946     0.00028272    -0.00197447
     6
  Step:    15            Position(A)                                  Velocity(au)
C         1.49360277     2.28049301     2.20100192    -0.00097796     0.00000507     0.00006221
N         2.81040287     2.16546219     2.22204822     0.00084086     0.00005789     0.00017952
H         0.95527915     1.67733307     2.91024873    -0.00112258     0.00054250    -0.00076257
H         0.98250530     2.89010081     1.48366631     0.00142019    -0.00061207    -0.00005909
H         3.43616705     2.44272010     1.48460555    -0.00101039    -0.00107550    -0.00041217
H         3.18336339     1.42376005     2.78947694     0.00066813     0.00028347    -0.00199510
     6
  Step:    16            Position(A)                                  Velocity(au)
C         1.49085388     2.28051430     2.20117534    -0.00103130     0.00001031     0.00006481
N         2.81276801     2.16561433     2.22254230     0.00088789     0.00005371     0.00018177
H         0.95219092     1.67883037     2.90813852    -0.00113706     0.00055153    -0.00077901
H         0.98639524     2.88840868     1.48347840     0.00142219    -0.00062347    -0.00008178
H         3.43337792     2.43978576     1.48347046    -0.00102691    -0.00106910    -0.00042042
H         3.18520393     1.42453029     2.78399685     0.00067919     0.00027519    -0.00200998
     6
  Step:    17            Position(A)                                  Velocity(au)
C         1.48796238     2.28054939     2.20135635    -0.00108219     0.00001515     0.00006778
N         2.81525892     2.16575592     2.22304238     0.00093279     0.00005019     0.00018390
H         0.94906032     1.68034953     2.90598815    -0.00115371     0.00055860    -0.00079179
H         0.99028358     2.88669092     1.48321903     0.00141897    -0.00063082    -0.00011166
H         3.43055066     2.43687293     1.48230619    -0.00103812    -0.00105963    -0.00043348
H         3.18707806     1.42526511     2.77848388     0.00069269     0.00025722    -0.00201921
     6
  Step:    18            Position(A)                                  Velocity(au)
C         1.48493513     2.28059714     2.20154606    -0.00113052     0.00001953     0.00007121
N         2.81786967     2.16588883     2.22354807     0.00097549     0.00004740     0.00018586
H         0.94588101     1.68188547     2.90380802    -0.00117288     0.00056403    -0.00080058
H         0.99415589     2.88495857     1.48286773     0.00141041    -0.00063420    -0.00014942
H         3.42770022     2.43399040     1.48109964    -0.00104367    -0.00104673    -0.00045121
H         3.18899240     1.42593706     2.77295332     0.00070854     0.00022878    -0.00202302
     6
  Step:    19            Position(A)                                  Velocity(au)
C         1.48177934     2.28065622     2.20174580    -0.00117609     0.00002338     0.00007520
N         2.82059408     2.16601514     2.22405888     0.00101584     0.00004541     0.00018761
H         0.94264557     1.68343434     2.90160962    -0.00119507     0.00056849    -0.00080486
H         0.99799746     2.88322234     1.48240181     0.00139639    -0.00063381    -0.00019613
H         3.42484258     2.43114813     1.47983841    -0.00104307    -0.00102980    -0.00047317
H         3.19095322     1.42651638     2.76741951     0.00072650     0.00018883    -0.00202193
     6
  Step:    20            Position(A)                                  Velocity(au)
C         1.47850281     2.28072498     2.20195734    -0.00044985     0.00000978     0.00002952
N         2.82342553     2.16613719     2.22457413     0.00038895     0.00001638     0.00006978
H         0.93934492     1.68499467     2.89940607    -0.00045083     0.00021165    -0.00029670
H         1.00179306     2.88149213     1.48179502     0.00050816    -0.00023260    -0.00009368
H         3.42199542     2.42835818     1.47851178    -0.00038222    -0.00037199    -0.00018397
H         3.19296580     1.42696981     2.76189491     0.00027540     0.00005002    -0.00074458
     6
  Step:    21            Position(A)                                  Velocity(au)
C         1.47721688     2.28075538     2.20204522    -0.00048985     0.00001223     0.00003499
N         2.82453893     2.16618127     2.22476665     0.00042473     0.00001610     0.00007091
H         0.93807315     1.68558096     2.89860040    -0.00048051     0.00021782    -0.00029109
H         1.00315135     2.88086324     1.48145174     0.00048395    -0.00022692    -0.00016026
H         3.42096597     2.42737528     1.47797252    -0.00036894    -0.00034539    -0.00021052
H         3.19374636     1.42702374     2.75986774     0.00029547    -0.00001380    -0.00073780
     6
  Step:    22            Position(A)                                  Velocity(au)
C         1.47582371     2.28079188     2.20214870    -0.00052808     0.00001417     0.00004099
N         2.82574849     2.16622525     2.22496193     0.00045914     0.00001635     0.00007177
H         0.93671689     1.68618598     2.89781402    -0.00051305     0.00022577    -0.00028223
H         1.00443989     2.88025103     1.48091855     0.00045695    -0.00022056    -0.00023315
H         3.41997761     2.42646917     1.47736038    -0.00035184    -0.00031546    -0.00023689
H         3.19458180     1.42689433     2.75785973     0.00031531    -0.00008456    -0.00073097
     6
  Step:    23            Position(A)                                  Velocity(au)
C         1.47432868     2.28083289     2.20226942    -0.00056394     0.00001541     0.00004771
N         2.82705009     2.16627067     2.22515918     0.00049178     0.00001725     0.00007228
H         0.93526714     1.68681574     2.89705683    -0.00054971     0.00023659    -0.00026908
H         1.00565052     2.87965694     1.48017658     0.00042648    -0.00021380    -0.00031404
H         3.41904167     2.42564998     1.47667691    -0.00032999    -0.00028120    -0.00026209
H         3.19547087     1.42656129     2.75586988     0.00033437    -0.00016364    -0.00072509
     6
  Step:    24            Position(A)                                  Velocity(au)
C         1.47273940     2.28087616     2.20240962    -0.00059609     0.00001558     0.00005543
N         2.82843813     2.16631957     2.22535724     0.00052174     0.00001907     0.00007225
H         0.93371040     1.68747993     2.89634239    -0.00059322     0.00025197    -0.00024953
H         1.00677239     2.87908171     1.47920099     0.00039067    -0.00020666    -0.00040619
H         3.41817285     2.42493121     1.47592693    -0.00030147    -0.00024086    -0.00028462
H         3.19641055     1.42599934     2.75389404     0.00035195    -0.00025382    -0.00072152
     6
  Step:    25            Position(A)                                  Velocity(au)
C         1.47106853     2.28091808     2.20257258    -0.00062093     0.00001390     0.00006466
N         2.82990359     2.16637496     2.22555431     0.00054658     0.00002240     0.00007133
H         0.93202267     1.68819384     2.89569211    -0.00065082     0.00027383    -0.00021860
H         1.00778719     2.87852668     1.47795503     0.00034380    -0.00019748    -0.00051627
H         3.41739287     2.42433265     1.47512027    -0.00026205    -0.00019144    -0.00030257
H         3.19739575     1.42517310     2.75192374     0.00036773    -0.00036065    -0.00072167
     6
  Step:    26            Position(A)                                  Velocity(au)
C         1.46934338     2.28095219     2.20276326    -0.00069343     0.00001019     0.00008322
N         2.83142752     2.16644209     2.22574735     0.00061725     0.00003119     0.00007638
H         0.93015092     1.68897757     2.89514683    -0.00081686     0.00032786    -0.00018278
H         1.00865270     2.87800163     1.47637737     0.00029663    -0.00019489    -0.00072005
H         3.41673964     2.42388421     1.47427213    -0.00022528    -0.00014547    -0.00035098
H         3.19842176     1.42402684     2.74994709     0.00042560    -0.00054099    -0.00079637
     6
  Step:    27            Position(A)                                  Velocity(au)
C         1.46744975     2.28099020     2.20298116    -0.00070459     0.00001803     0.00007766
N         2.83312339     2.16652623     2.22596559     0.00063193     0.00002965     0.00008280
H         0.92779082     1.68971349     2.89468195    -0.00088509     0.00022909    -0.00016851
H         1.00931690     2.87759460     1.47439020     0.00021480    -0.00012226    -0.00073267
H         3.41613671     2.42343629     1.47315389    -0.00022088    -0.00017498    -0.00045506
H         3.19970412     1.42252740     2.74789589     0.00050016    -0.00055745    -0.00071698
     6
  Step:    28            Position(A)                                  Velocity(au)
C         1.46548983     2.28105081     2.20318799    -0.00073253     0.00002566     0.00007512
N         2.83488370     2.16660428     2.22620023     0.00065798     0.00002772     0.00008814
H         0.92531018     1.69023052     2.89422521    -0.00092259     0.00016264    -0.00016665
H         1.00982748     2.87733295     1.47237025     0.00016757    -0.00007911    -0.00075214
H         3.41553161     2.42292719     1.47178332    -0.00021980    -0.00018946    -0.00053805
H         3.20115727     1.42097801     2.74602577     0.00055484    -0.00058366    -0.00066028
     6
  Step:    29            Position(A)                                  Velocity(au)
C         1.46344335     2.28113051     2.20339202    -0.00076471     0.00003218     0.00007487
N         2.83672204     2.16667784     2.22644764     0.00068682     0.00002639     0.00009245
H         0.92274493     1.69060300     2.89377050    -0.00095229     0.00011597    -0.00016524
H         1.01023340     2.87716191     1.47027655     0.00013196    -0.00005016    -0.00078380
H         3.41493457     2.42240010     1.47021120    -0.00021500    -0.00019205    -0.00060732
H         3.20273867     1.41933520     2.74428469     0.00059808    -0.00062259    -0.00061767
     6
  Step:    30            Position(A)                                  Velocity(au)
C         1.46130743     2.28122683     2.20359746    -0.00079722     0.00003797     0.00007581
N         2.83864006     2.16674858     2.22670587     0.00071576     0.00002557     0.00009620
H         0.92010186     1.69086481     2.89332145    -0.00098054     0.00007867    -0.00016256
H         1.01054922     2.87705864     1.46808348     0.00010013    -0.00002763    -0.00082277
H         3.41435575     2.42187685     1.46846174    -0.00020713    -0.00018859    -0.00066972
H         3.20442831     1.41757290     2.74264761     0.00063552    -0.00066894    -0.00058227
     6
  Step:    31            Position(A)                                  Velocity(au)
C         1.45908315     2.28133819     2.20380664    -0.00082914     0.00004329     0.00007744
N         2.84063668     2.16681770     2.22697379     0.00074417     0.00002515     0.00009961
H         0.91738211     1.69103327     2.89288140    -0.00100859     0.00004640    -0.00015887
H         1.01078105     2.87701079     1.46577661     0.00007011    -0.00000890    -0.00086594
H         3.41380172     2.42136863     1.46654834    -0.00019731    -0.00018200    -0.00072800
H         3.20621447     1.41567661     2.74110010     0.00066924    -0.00071945    -0.00055138
     6
  Step:    32            Position(A)                                  Velocity(au)
C         1.45677270     2.28146357     2.20402100    -0.00086018     0.00004827     0.00007953
N         2.84271008     2.16688613     2.22725068     0.00077187     0.00002504     0.00010279
H         0.91458563     1.69111859     2.89245256    -0.00103670     0.00001725    -0.00015456
H         1.01093264     2.87700996     1.46334748     0.00004133     0.00000706    -0.00091158
H         3.41327660     2.42088144     1.46448012    -0.00018629    -0.00017375    -0.00078326
H         3.20808855     1.41363809     2.73963199     0.00070004    -0.00077229    -0.00052388
     6
  Step:    33            Position(A)                                  Velocity(au)
C         1.45437864     2.28160218     2.20424161    -0.00089027     0.00005298     0.00008197
N         2.84485822     2.16695463     2.22753599     0.00079883     0.00002519     0.00010578
H         0.91171215     1.69112764     2.89203610    -0.00106489    -0.00000969    -0.00014999
H         1.01100708     2.87704938     1.46079095     0.00001368     0.00002068    -0.00095875
H         3.41278284     2.42041836     1.46226451    -0.00017460    -0.00016471    -0.00083588
H         3.21004313     1.41145279     2.73823488     0.00072817    -0.00082635    -0.00049931
     6
  Step:    34            Position(A)                                  Velocity(au)
C         1.45190362     2.28175335     2.20446934    -0.00091938     0.00005747     0.00008473
N         2.84707904     2.16702390     2.22782922     0.00082503     0.00002559     0.00010859
H         0.90876151     1.69106558     2.89163226    -0.00109311    -0.00003489    -0.00014548
H         1.01100745     2.87712306     1.45810388    -0.00001279     0.00003217    -0.00100685
H         3.41232169     2.41998063     1.45990850    -0.00016262    -0.00015543    -0.00088592
H         3.21207105     1.40911861     2.73690114     0.00075363    -0.00088088    -0.00047749
     6
  Step:    35            Position(A)                                  Velocity(au)
C         1.44935032     2.28191649     2.20470500    -0.00094754     0.00006173     0.00008779
N         2.84937051     2.16709457     2.22812988     0.00085052     0.00002623     0.00011120
H         0.90573370     1.69093680     2.89124042    -0.00112128    -0.00005854    -0.00014137
H         1.01093712     2.87722533     1.45528427    -0.00003793     0.00004162    -0.00105556
H         3.41189345     2.41956825     1.45741924    -0.00015068    -0.00014635    -0.00093323
H         3.21416493     1.40663506     2.73562340     0.00077630    -0.00093538    -0.00045835
     6
  Step:    36            Position(A)                                  Velocity(au)
C         1.44672132     2.28209095     2.20494945    -0.00097477     0.00006574     0.00009119
N         2.85173073     2.16716733     2.22843742     0.00087535     0.00002712     0.00011359
H         0.90262897     1.69074540     2.89085906    -0.00114932    -0.00008067    -0.00013800
H         1.01079999     2.87735068     1.45233075    -0.00006152     0.00004907    -0.00110476
H         3.41149759     2.41918022     1.45480447    -0.00013907    -0.00013777    -0.00097755
H         3.21631679     1.40400282     2.73439433     0.00079588    -0.00098949    -0.00044189
     6
  Step:    37            Position(A)                                  Velocity(au)
C         1.44401906     2.28227605     2.20520371    -0.00100116     0.00006948     0.00009499
N         2.85415797     2.16724287     2.22875114     0.00089958     0.00002828     0.00011570
H         0.89944781     1.69049559     2.89048565    -0.00117710    -0.00010120    -0.00013578
H         1.01060064     2.87749371     1.44924206    -0.00008326     0.00005457    -0.00115448
H         3.41113285     2.41881477     1.45207280    -0.00012806    -0.00012996    -0.00101852
H         3.21851778     1.40122331     2.73320661     0.00081199    -0.00104302    -0.00042810
     6
  Step:    38            Position(A)                                  Velocity(au)
C         1.44124575     2.28247096     2.20546899    -0.00102681     0.00007289     0.00009931
N         2.85665076     2.16732201     2.22907020     0.00092335     0.00002977     0.00011745
H         0.89619112     1.69019191     2.89011647    -0.00120447    -0.00011997    -0.00013518
H         1.01034464     2.87764913     1.44601662    -0.00010272     0.00005816    -0.00120493
H         3.41079718     2.41846946     1.44923393    -0.00011797    -0.00012315    -0.00105571
H         3.22075776     1.39829832     2.73205294     0.00082409    -0.00109588    -0.00041696
     6
  Step:    39            Position(A)                                  Velocity(au)
C         1.43840322     2.28267468     2.20574688    -0.00105188     0.00007589     0.00010430
N         2.85920798     2.16740568     2.22939352     0.00094681     0.00003163     0.00011876
H         0.89286029     1.68983947     2.88974633    -0.00123118    -0.00013674    -0.00013681
H         1.01003885     2.87781179     1.44265201    -0.00011935     0.00005991    -0.00125653
H         3.41048763     2.41814123     1.44629889    -0.00010918    -0.00011755    -0.00108858
H         3.22302489     1.39522970     2.73092618     0.00083140    -0.00114810    -0.00040836
     6
  Step:    40            Position(A)                                  Velocity(au)
C         1.43549277     2.28288600     2.20603943    -0.00045825     0.00003337     0.00004688
N         2.86182908     2.16749500     2.22971971     0.00041296     0.00001445     0.00005086
H         0.88945752     1.68944404     2.88936819    -0.00053496    -0.00006439    -0.00006021
H         1.00969190     2.87797678     1.43914438    -0.00005634     0.00002550    -0.00055754
H         3.41020004     2.41782652     1.44328025    -0.00004352    -0.00004824    -0.00047525
H         3.22530487     1.39201910     2.72981954     0.00035450    -0.00051067    -0.00017116
     6
  Step:    41            Position(A)                                  Velocity(au)
C         1.43420590     2.28298032     2.20617630    -0.00048296     0.00003548     0.00005347
N         2.86299042     2.16753800     2.22985934     0.00043650     0.00001712     0.00005110
H         0.88796038     1.68924965     2.88919486    -0.00055962    -0.00007725    -0.00006747
H         1.00952277     2.87804534     1.43754526    -0.00006628     0.00002427    -0.00061261
H         3.41008905     2.41769934     1.44194590    -0.00003828    -0.00004511    -0.00049943
H         3.22627190     1.39055224     2.72935845     0.00035108    -0.00056204    -0.00016653
     6
  Step:    42            Position(A)                                  Velocity(au)
C         1.43285138     2.28308007     2.20633187    -0.00050779     0.00003734     0.00006060
N         2.86421639     2.16758862     2.22999919     0.00046028     0.00002003     0.00005100
H         0.88639682     1.68902153     2.88899920    -0.00058342    -0.00008904    -0.00007669
H         1.00932940     2.87810951     1.43579387    -0.00007385     0.00002222    -0.00066903
H         3.40999066     2.41757981     1.44054873    -0.00003446    -0.00004266    -0.00052108
H         3.22722501     1.38894519     2.72890875     0.00034402    -0.00061317    -0.00016287
     6
  Step:    43            Position(A)                                  Velocity(au)
C         1.43142868     2.28318452     2.20650774    -0.00053290     0.00003892     0.00006836
N         2.86550782     2.16764754     2.23013828     0.00048446     0.00002319     0.00005053
H         0.88476951     1.68876267     2.88877542    -0.00060611    -0.00009978    -0.00008818
H         1.00911886     2.87816688     1.43388618    -0.00007861     0.00001922    -0.00072704
H         3.40990057     2.41746600     1.43909599    -0.00003242    -0.00004092    -0.00054002
H         3.22815339     1.38719870     2.72846770     0.00033265    -0.00066396    -0.00016022
     6
  Step:    44            Position(A)                                  Velocity(au)
C         1.42993684     2.28329294     2.20670573    -0.00055845     0.00004026     0.00007680
N         2.86686601     2.16771544     2.23027554     0.00050921     0.00002659     0.00004966
H         0.88308187     1.68847582     2.88851692    -0.00062738    -0.00010964    -0.00010223
H         1.00889949     2.87821466     1.43181750    -0.00008006     0.00001510    -0.00078688
H         3.40981334     2.41735599     1.43759522    -0.00003265    -0.00003988    -0.00055622
H         3.22904433     1.38531386     2.72803245     0.00031625    -0.00071421    -0.00015866
     6