     6
  Step:  1000            Position(A)                                  Velocity(au)
C        -0.68812095     0.00135130    -0.06957163    -0.00007971     0.00000380     0.00004259
C         0.64913726    -0.01381799    -0.03970251    -0.00002526    -0.00002822    -0.00018524
H        -1.17901975     0.98711893    -0.08278139     0.00039402     0.00086588    -0.00063970
H        -1.27067113    -0.87054605     0.09842677     0.00092695    -0.00026168     0.00058084
H         1.10959841     0.95187738    -0.10966463    -0.00056098     0.00034478     0.00135276
H         1.24714284    -0.88989583     0.09491317     0.00049076    -0.00065794     0.00040594
