     6
  Step:     0            Position(A)                                  Velocity(au)
C        -0.69284974     0.00000000     0.00000000     0.00000000     0.00000000     0.00000000
C         0.66284974     0.00000000     0.00000000     0.00000000     0.00000000     0.00000000
H        -1.03381877     0.72280451    -0.32280655     0.00000000     0.00000000     0.00000000
H        -1.23381879    -0.72280451    -0.34280655     0.00000000     0.00000000     0.00000000
H         1.03381877     0.75280451    -0.32280655     0.00000000     0.00000000     0.00000000
H         1.03381877    -0.72280451    -0.31280655     0.00000000     0.00000000     0.00000000
     6
  Step:     1            Position(A)                                  Velocity(au)
C        -0.69278445    -0.00004956     0.00003126     0.00004755    -0.00003599     0.00002271
C         0.66276975     0.00001182     0.00004059    -0.00005827     0.00000856     0.00002950
H        -1.03432141     0.72387946    -0.32312324    -0.00036592     0.00078244    -0.00023002
H        -1.23405782    -0.72323809    -0.34286009    -0.00017432    -0.00031636    -0.00003886
H         1.03421261     0.75358720    -0.32301476     0.00028702     0.00057025    -0.00015140
H         1.03434181    -0.72377893    -0.31308432     0.00038093    -0.00070943    -0.00020183
     6
  Step:     2            Position(A)                                  Velocity(au)
C        -0.69258969    -0.00019686     0.00012418     0.00009430    -0.00007100     0.00004478
C         0.66253107     0.00004681     0.00016135    -0.00011559     0.00001677     0.00005828
H        -1.03582007     0.72708388    -0.32406458    -0.00072518     0.00155018    -0.00045375
H        -1.23477221    -0.72453476    -0.34301910    -0.00034670    -0.00062976    -0.00007654
H         1.03538857     0.75592335    -0.32363457     0.00057004     0.00113189    -0.00029932
H         1.03590218    -0.72668454    -0.31391041     0.00075556    -0.00140612    -0.00039845
     6
  Step:     3            Position(A)                                  Velocity(au)
C        -0.69226871    -0.00043788     0.00027620     0.00013949    -0.00010410     0.00006565
C         0.66213756     0.00010356     0.00035931    -0.00017108     0.00002432     0.00008563
H        -1.03828760     0.73235775    -0.32560493    -0.00107153     0.00228938    -0.00066533
H        -1.23595400    -0.72668241    -0.34327871    -0.00051522    -0.00093732    -0.00011188
H         1.03733027     0.75977776    -0.32465183     0.00084520     0.00167668    -0.00044048
H         1.03847416    -0.73146934    -0.31526351     0.00111792    -0.00207806    -0.00058495
     6
  Step:     4            Position(A)                                  Velocity(au)
C        -0.69182677    -0.00076622     0.00048321     0.00018245    -0.00013451     0.00008477
C         0.66159541     0.00017983     0.00062970    -0.00022392     0.00003094     0.00011096
H        -1.04168051     0.73960504    -0.32770344    -0.00139944     0.00298787    -0.00085966
H        -1.23759008    -0.72966117    -0.34363101    -0.00067809    -0.00123628    -0.00014380
H         1.04001117     0.76509350    -0.32604367     0.00110901     0.00219712    -0.00057189
H         1.04201635    -0.73804992    -0.31710961     0.00146268    -0.00271455    -0.00075703
     6
  Step:     5            Position(A)                                  Velocity(au)
C        -0.69127086    -0.00117354     0.00073983     0.00022258    -0.00016160     0.00010173
C         0.66091290     0.00027277     0.00096620    -0.00027342     0.00003643     0.00013376
H        -1.04594147     0.74869911    -0.33030661    -0.00170440     0.00363569    -0.00103268
H        -1.23966260    -0.73344389    -0.34406520    -0.00083362    -0.00152408    -0.00017131
H         1.04339568     0.77179431    -0.32777960     0.00135839     0.00268670    -0.00069098
H         1.04647391    -0.74631585    -0.31940388     0.00178539    -0.00330673    -0.00091119
     6
  Step:     6            Position(A)                                  Velocity(au)
C        -0.69060943    -0.00165007     0.00103962     0.00025943    -0.00018496     0.00011622
C         0.66010003     0.00037907     0.00136126    -0.00031902     0.00004067     0.00015363
H        -1.05100229     0.75948948    -0.33335139    -0.00198305     0.00422543    -0.00118150
H        -1.24214933    -0.73799670    -0.34456793    -0.00098032    -0.00179840    -0.00019352
H         1.04744053     0.77978768    -0.32982281     0.00159085     0.00314011    -0.00079574
H         1.05178108    -0.75613516    -0.32209311     0.00208260    -0.00384779    -0.00104484
     6
  Step:     7            Position(A)                                  Velocity(au)
C        -0.68985200    -0.00218512     0.00137546     0.00029264    -0.00020435     0.00012802
C         0.65916813     0.00049521     0.00180645    -0.00036030     0.00004362     0.00017032
H        -1.05678723     0.77180894    -0.33676851    -0.00223319     0.00475226    -0.00130443
H        -1.24502421    -0.74327976    -0.34512362    -0.00111690    -0.00205722    -0.00020970
H         1.05209639     0.78896828    -0.33213167     0.00180444     0.00355330    -0.00088466
H         1.05786412    -0.76736032    -0.32511835     0.00235190    -0.00433314    -0.00115634
     6
  Step:     8            Position(A)                                  Velocity(au)
C        -0.68900889    -0.00276768     0.00173981     0.00032201    -0.00021972     0.00013704
C         0.65812944     0.00061765     0.00229280    -0.00039701     0.00004530     0.00018369
H        -1.06321611     0.78548066    -0.34048562    -0.00245372     0.00521380    -0.00140086
H        -1.24825791    -0.74924810    -0.34571483    -0.00124227    -0.00229882    -0.00021925
H         1.05730942     0.79922151    -0.33466124     0.00199783     0.00392354    -0.00095683
H         1.06464415    -0.77983412    -0.32841740     0.00259189    -0.00476022    -0.00124494
     6
  Step:     9            Position(A)                                  Velocity(au)
C        -0.68809085    -0.00338680     0.00212498     0.00034741    -0.00023117     0.00014327
C         0.65699678     0.00074299     0.00281110    -0.00042900     0.00004579     0.00019370
H        -1.07020721     0.80032441    -0.34443015    -0.00264452     0.00560978    -0.00147115
H        -1.25181848    -0.75585253    -0.34632273    -0.00135560    -0.00252181    -0.00022172
H         1.06302296     0.81042702    -0.33736480     0.00217024     0.00424929    -0.00101183
H         1.07203974    -0.79339506    -0.33192721     0.00280206    -0.00512832    -0.00131069
     6
  Step:    10            Position(A)                                  Velocity(au)
C        -0.68710880    -0.00403200     0.00252337     0.00036883    -0.00023893     0.00014677
C         0.65578315     0.00086811     0.00335220    -0.00045625     0.00004521     0.00020043
H        -1.07767959     0.81616185    -0.34853166    -0.00280622     0.00594167    -0.00151639
H        -1.25567199    -0.76304048    -0.34692744    -0.00145627    -0.00272515    -0.00021680
H         1.06917897     0.82246185    -0.34019515     0.00232143     0.00453013    -0.00104969
H         1.07996924    -0.80788207    -0.33558586     0.00298268    -0.00543829    -0.00135430
     6
  Step:    11            Position(A)                                  Velocity(au)
C        -0.68607361    -0.00469355     0.00292768     0.00038633    -0.00024330     0.00014767
C         0.65450146     0.00099026     0.00390727    -0.00047883     0.00004369     0.00020400
H        -1.08555504     0.83282077    -0.35272362    -0.00294007     0.00621228    -0.00153826
H        -1.25978317    -0.77075698    -0.34750848    -0.00154392    -0.00290809    -0.00020435
H         1.07571941     0.83520333    -0.34310581     0.00245161     0.00476660    -0.00107087
H         1.08835268    -0.82313829    -0.33933419     0.00313464    -0.00569222    -0.00137701
     6
  Step:    12            Position(A)                                  Velocity(au)
C        -0.68499586    -0.00536269     0.00333100     0.00040004    -0.00024466     0.00014613
C         0.65316429     0.00110709     0.00446792    -0.00049693     0.00004141     0.00020462
H        -1.09375951     0.85013825    -0.35694474    -0.00304779     0.00642541    -0.00153881
H        -1.26411603    -0.77894548    -0.34804510    -0.00161838    -0.00307020    -0.00018434
H         1.08258740     0.84853146    -0.34605196     0.00256137     0.00496001    -0.00107608
H         1.09711329    -0.83901414    -0.34311701     0.00325932    -0.00589318    -0.00138040
     6
  Step:    13            Position(A)                                  Velocity(au)
C        -0.68388571    -0.00603168     0.00372692     0.00041012    -0.00024340     0.00014236
C         0.65178366     0.00121671     0.00502639    -0.00051074     0.00003850     0.00020252
H        -1.10222412     0.86796282    -0.36113972    -0.00313137     0.00658546    -0.00152028
H        -1.26863443    -0.78754863    -0.34851666    -0.00167968    -0.00321135    -0.00015685
H         1.08972811     0.86233076    -0.34899116     0.00265157     0.00511228    -0.00106632
H         1.10617865    -0.85536941    -0.34688389     0.00335844    -0.00604480    -0.00136627
     6
  Step:    14            Position(A)                                  Velocity(au)
C        -0.68275280    -0.00669390     0.00410962     0.00041680    -0.00023991     0.00013657
C         0.65037092     0.00131767     0.00557557    -0.00052055     0.00003513     0.00019796
H        -1.11088570     0.88615561    -0.36525950    -0.00319294     0.00669707    -0.00148493
H        -1.27330256    -0.79650908    -0.34890297    -0.00172800    -0.00333162    -0.00012213
H         1.09708945     0.87649170    -0.35188389     0.00272328     0.00522574    -0.00104270
H         1.11548138    -0.87207452    -0.35058946     0.00343391    -0.00615107    -0.00133649
     6
  Step:    15            Position(A)                                  Velocity(au)
C        -0.68160613    -0.00734379     0.00447384     0.00042028    -0.00023455     0.00012895
C         0.64893667     0.00140886     0.00610908    -0.00052662     0.00003142     0.00019119
H        -1.11968702     0.90459064    -0.36926113    -0.00323464     0.00676494    -0.00143492
H        -1.27808526    -0.80577004    -0.34918463    -0.00176363    -0.00343135    -0.00008052
H         1.10462236     0.89091153    -0.35469394     0.00277765     0.00530296    -0.00100650
H         1.12495949    -0.88901101    -0.35419344     0.00348772    -0.00621607    -0.00129286
     6
  Step:    16            Position(A)                                  Velocity(au)
C        -0.68045417    -0.00797671     0.00481488     0.00042078    -0.00022766     0.00011972
C         0.64749073     0.00148952     0.00662122    -0.00052922     0.00002748     0.00018246
H        -1.12857669     0.92315463    -0.37310738    -0.00325859     0.00679362    -0.00137223
H        -1.28294825    -0.81527593    -0.34934336    -0.00178690    -0.00351105    -0.00003248
H         1.11228102     0.90549478    -0.35738867     0.00281583     0.00534664    -0.00095903
H         1.13455651    -0.90607160    -0.35766042     0.00352189    -0.00624383    -0.00123710
     6
  Step:    17            Position(A)                                  Velocity(au)
C        -0.67930480    -0.00858890     0.00512863     0.00041847    -0.00021953     0.00010908
C         0.64604223     0.00155914     0.00710699    -0.00052861     0.00002338     0.00017202
H        -1.13750901     0.94174648    -0.37676616    -0.00326679     0.00678743    -0.00129866
H        -1.28785821    -0.82497279    -0.34936226    -0.00179818    -0.00357139     0.00002149
H         1.12002279     0.92015350    -0.35993911     0.00283901     0.00535953    -0.00090163
H         1.14422153    -0.92315993    -0.36095943     0.00353841    -0.00623826    -0.00117077
     6
  Step:    18            Position(A)                                  Velocity(au)
C        -0.67816547    -0.00917736     0.00541146     0.00041351    -0.00021042     0.00009720
C         0.64459965     0.00161740     0.00756202    -0.00052500     0.00001921     0.00016009
H        -1.14644349     0.96027660    -0.38021007    -0.00326105     0.00675041    -0.00121586
H        -1.29278292    -0.83480867    -0.34922582    -0.00179791    -0.00361314     0.00008087
H         1.12780820     0.93480728    -0.36231987     0.00284833     0.00534436    -0.00083553
H         1.15390886    -0.94019007    -0.36406363     0.00353910    -0.00620307    -0.00109533
     6
  Step:    19            Position(A)                                  Velocity(au)
C        -0.67704322    -0.00973976     0.00566025     0.00040605    -0.00020058     0.00008426
C         0.64317090     0.00166419     0.00798254    -0.00051859     0.00001502     0.00014687
H        -1.15534442     0.97866599    -0.38341597    -0.00324302     0.00668625    -0.00112532
H        -1.29769142    -0.84473390    -0.34891996    -0.00178660    -0.00363718     0.00014518
H         1.13560097     0.94938301    -0.36450880     0.00284497     0.00530375    -0.00076186
H         1.16357768    -0.95708592    -0.36695006     0.00352567    -0.00614170    -0.00101216
     6
  Step:    20            Position(A)                                  Velocity(au)
C        -0.67594469    -0.01027437     0.00587229     0.00007736    -0.00003714     0.00001375
C         0.64176337     0.00169955     0.00836530    -0.00009950     0.00000212     0.00002588
H        -1.16418030     0.99684524    -0.38636469    -0.00062757     0.00128833    -0.00020080
H        -1.30255427    -0.85470123    -0.34843182    -0.00034459    -0.00071158     0.00004178
H         1.14336797     0.96381467    -0.36648667     0.00055257     0.00102316    -0.00013309
H         1.17319155    -0.97378041    -0.36959936     0.00068331    -0.00118270    -0.00018012
     6
  Step:    21            Position(A)                                  Velocity(au)
C        -0.67574813    -0.01036142     0.00589036     0.00006619    -0.00002651    -0.00000060
C         0.64150532     0.00169974     0.00841584    -0.00008901    -0.00000197     0.00001100
H        -1.16585004     1.00023282    -0.38677746    -0.00059274     0.00118731    -0.00010064
H        -1.30345991    -0.85664584    -0.34822059    -0.00031685    -0.00070913     0.00011307
H         1.14485115     0.96651088    -0.36673675     0.00053120     0.00094684    -0.00004930
H         1.17501640    -0.97688450    -0.36996538     0.00065028    -0.00108566    -0.00008710
     6
  Step:    22            Position(A)                                  Velocity(au)
C        -0.67558269    -0.01041934     0.00586903     0.00005463    -0.00001583    -0.00001506
C         0.64127657     0.00168877     0.00842545    -0.00007810    -0.00000604    -0.00000404
H        -1.16742215     1.00333890    -0.38691512    -0.00055626     0.00108266     0.00000030
H        -1.30428717    -0.85857963    -0.34781339    -0.00028734    -0.00070374     0.00018506
H         1.14627324     0.96899315    -0.36675630     0.00050799     0.00086690     0.00003542
H         1.17674807    -0.97971816    -0.37007575     0.00061527    -0.00098512     0.00000675
     6
  Step:    23            Position(A)                                  Velocity(au)
C        -0.67544936    -0.01044803     0.00580800     0.00004273    -0.00000514    -0.00002962
C         0.64107819     0.00166669     0.00839377    -0.00006682    -0.00001009    -0.00001919
H        -1.16889238     1.00615411    -0.38677580    -0.00051833     0.00097478     0.00010183
H        -1.30503141    -0.86049477    -0.34720846    -0.00025621    -0.00069557     0.00025762
H         1.14762948     0.97125213    -0.36654302     0.00048314     0.00078372     0.00012090
H         1.17838147    -0.98227236    -0.36992845     0.00057851    -0.00088148     0.00010126
     6
  Step:    24            Position(A)                                  Velocity(au)
C        -0.67534899    -0.01044745     0.00570702     0.00003055     0.00000556    -0.00004426
C         0.64091110     0.00163360     0.00832052    -0.00005524    -0.00001410    -0.00003443
H        -1.17025700     1.00867022    -0.38635817    -0.00047913     0.00086410     0.00020376
H        -1.30568843    -0.86238389    -0.34640439    -0.00022362    -0.00068480     0.00033065
H         1.14891563     0.97327948    -0.36609506     0.00045683     0.00069769     0.00020697
H         1.17991206    -0.98453920    -0.36952195     0.00054019    -0.00077515     0.00019624
     6
  Step:    25            Position(A)                                  Velocity(au)
C        -0.67528230    -0.01041764     0.00556594     0.00001813     0.00001623    -0.00005894
C         0.64077607     0.00158958     0.00820548    -0.00004340    -0.00001808    -0.00004973
H        -1.17151284     1.01088005    -0.38566140    -0.00043886     0.00075098     0.00030589
H        -1.30625443    -0.86424009    -0.34540005    -0.00018972    -0.00067159     0.00040403
H         1.15012797     0.97506793    -0.36541105     0.00042925     0.00060918     0.00029345
H         1.18133587    -0.98651185    -0.36885519     0.00050051    -0.00066652     0.00029151
     6
  Step:    26            Position(A)                                  Velocity(au)
C        -0.67524985    -0.01035868     0.00538467     0.00000552     0.00002687    -0.00007364
C         0.64067373     0.00153471     0.00804854    -0.00003136    -0.00002203    -0.00006506
H        -1.17265722     1.01277750    -0.38468516    -0.00039770     0.00063582     0.00040806
H        -1.30672607    -0.86605696    -0.34419463    -0.00015468    -0.00065613     0.00047765
H         1.15126330     0.97661122    -0.36449009     0.00040060     0.00051857     0.00038019
H         1.18264948    -0.98818456    -0.36792759     0.00045969    -0.00055597     0.00038692
     6
  Step:    27            Position(A)                                  Velocity(au)
C        -0.67525210    -0.01027068     0.00516317    -0.00000722     0.00003746    -0.00008834
C         0.64060455     0.00146910     0.00784964    -0.00001917    -0.00002594    -0.00008040
H        -1.17368796     1.01435748    -0.38342960    -0.00035584     0.00051898     0.00051010
H        -1.30710043    -0.86782860    -0.34278767    -0.00011866    -0.00063859     0.00055138
H         1.15231893     0.97790412    -0.36333172     0.00037106     0.00042624     0.00046700
H         1.18385001    -0.98955259    -0.36673903     0.00041791    -0.00044388     0.00048230
     6
  Step:    28            Position(A)                                  Velocity(au)
C        -0.67528932    -0.01015382     0.00490149    -0.00002004     0.00004797    -0.00010302
C         0.64056886     0.00139285     0.00760882    -0.00000689    -0.00002981    -0.00009571
H        -1.17460338     1.01561592    -0.38189533    -0.00031344     0.00040084     0.00061182
H        -1.30737505    -0.86954958    -0.34117899    -0.00008182    -0.00061918     0.00062512
H         1.15329268     0.97894240    -0.36193597     0.00034080     0.00033253     0.00055373
H         1.18493511    -0.99061222    -0.36528981     0.00037536    -0.00033060     0.00057748
     6
  Step:    29            Position(A)                                  Velocity(au)
C        -0.67536169    -0.01000832     0.00459973    -0.00003289     0.00005840    -0.00011765
C         0.64056685     0.00130606     0.00732616     0.00000543    -0.00003364    -0.00011098
H        -1.17540226     1.01654974    -0.38008341    -0.00027070     0.00028174     0.00071308
H        -1.30754794    -0.87121501    -0.33936877    -0.00004434    -0.00059807     0.00069873
H         1.15418286     0.97972282    -0.36030326     0.00031002     0.00023783     0.00064021
H         1.18590296    -0.99136074    -0.36358067     0.00033225    -0.00021652     0.00067231
     6
  Step:    30            Position(A)                                  Velocity(au)
C        -0.67546921    -0.00983442     0.00425806    -0.00004572     0.00006873    -0.00013220
C         0.64059855     0.00120885     0.00700184     0.00001773    -0.00003744    -0.00012617
H        -1.17608389     1.01715684    -0.37799536    -0.00022778     0.00016206     0.00081370
H        -1.30761754    -0.87282053    -0.33735749    -0.00000637    -0.00057545     0.00077211
H         1.15498828     0.98024313    -0.35843449     0.00027890     0.00014248     0.00072630
H         1.18675226    -0.99179640    -0.36161277     0.00028875    -0.00010198     0.00076664
     6
  Step:    31            Position(A)                                  Velocity(au)
C        -0.67561175    -0.00963242     0.00387672    -0.00005848     0.00007894    -0.00014665
C         0.64066384     0.00110131     0.00663609     0.00002997    -0.00004119    -0.00014126
H        -1.17664802     1.01743611    -0.37563312    -0.00018485     0.00004216     0.00091352
H        -1.30758277    -0.87436229    -0.33514594     0.00003192    -0.00055153     0.00084513
H         1.15570826     0.98050208    -0.35633098     0.00024763     0.00004685     0.00081182
H         1.18748222    -0.99191849    -0.35938771     0.00024507     0.00001264     0.00086032
     6
  Step:    32            Position(A)                                  Velocity(au)
C        -0.67578905    -0.00940267     0.00345600    -0.00007112     0.00008902    -0.00016098
C         0.64076245     0.00098358     0.00622924     0.00004208    -0.00004490    -0.00015623
H        -1.17709490     1.01738743    -0.37299909    -0.00014211    -0.00007760     0.00101240
H        -1.30744298    -0.87583697    -0.33273525     0.00007035    -0.00052649     0.00091770
H         1.15634261     0.98049939    -0.35399446     0.00021637    -0.00004869     0.00089664
H         1.18809259    -0.99172725    -0.35690749     0.00020138     0.00012699     0.00095319
     6
  Step:    33            Position(A)                                  Velocity(au)
C        -0.67600070    -0.00914554     0.00299626    -0.00008358     0.00009895    -0.00017518
C         0.64089399     0.00085576     0.00578165     0.00005402    -0.00004856    -0.00017104
H        -1.17742525     1.01701168    -0.37009609    -0.00009972    -0.00019686     0.00111016
H        -1.30719800    -0.87724178    -0.33012682     0.00010876    -0.00050053     0.00098970
H         1.15689165     0.98023577    -0.35142708     0.00018533    -0.00014379     0.00098059
H         1.18858363    -0.99122393    -0.35417452     0.00015789     0.00024070     0.00104510
     6
  Step:    34            Position(A)                                  Velocity(au)
C        -0.67624616    -0.00886148     0.00249792    -0.00009582     0.00010872    -0.00018920
C         0.64105788     0.00071799     0.00529378     0.00006572    -0.00005217    -0.00018568
H        -1.17764028     1.01631075    -0.36692739    -0.00005786    -0.00031524     0.00120664
H        -1.30684812    -0.87857448    -0.32732234     0.00014699    -0.00047384     0.00106103
H         1.15735622     0.97971294    -0.34863138     0.00015468    -0.00023809     0.00106355
H         1.18895614    -0.99041080    -0.35119163     0.00011479     0.00035340     0.00113589
     6
  Step:    35            Position(A)                                  Velocity(au)
C        -0.67652474    -0.00855094     0.00196146    -0.00010778     0.00011830    -0.00020304
C         0.64125344     0.00057041     0.00476614     0.00007715    -0.00005574    -0.00020011
H        -1.17774171     1.01528758    -0.36349669    -0.00001673    -0.00043235     0.00130169
H        -1.30639407    -0.87983335    -0.32432381     0.00018487    -0.00044663     0.00113158
H         1.15773765     0.97893359    -0.34561029     0.00012462    -0.00033122     0.00114536
H         1.18921144    -0.98929113    -0.34796206     0.00007227     0.00046470     0.00122543
     6
  Step:    36            Position(A)                                  Velocity(au)
C        -0.67683563    -0.00821446     0.00138743    -0.00011942     0.00012768    -0.00021667
C         0.64147981     0.00041314     0.00419931     0.00008823    -0.00005925    -0.00021433
H        -1.17773178     1.01394615    -0.35980815     0.00002349    -0.00054780     0.00139514
H        -1.30583702    -0.88101719    -0.32113346     0.00022224    -0.00041908     0.00120127
H         1.15803781     0.97790143    -0.34236713     0.00009534    -0.00042281     0.00122590
H         1.18935142    -0.98786926    -0.34448948     0.00003055     0.00057422     0.00131354
     6
  Step:    37            Position(A)                                  Velocity(au)
C        -0.67717788    -0.00785261     0.00077642    -0.00013069     0.00013684    -0.00023008
C         0.64173601     0.00024636     0.00359394     0.00009894    -0.00006270    -0.00022829
H        -1.17761324     1.01229154    -0.35586636     0.00006260    -0.00066119     0.00148682
H        -1.30517861    -0.88212536    -0.31775380     0.00025893    -0.00039138     0.00127000
H         1.15825908     0.97662116    -0.33890556     0.00006703    -0.00051248     0.00130503
H         1.18937852    -0.98615060    -0.34077798    -0.00001018     0.00068156     0.00140009
     6
  Step:    38            Position(A)                                  Velocity(au)
C        -0.67755040    -0.00746604     0.00012909    -0.00014154     0.00014576    -0.00024322
C         0.64202091     0.00007022     0.00295073     0.00010920    -0.00006609    -0.00024198
H        -1.17738938     1.01032997    -0.35167639     0.00010041    -0.00077208     0.00157657
H        -1.30442090    -0.88315773    -0.31418756     0.00029478    -0.00036373     0.00133768
H         1.15840439     0.97509854    -0.33522963     0.00003988    -0.00059987     0.00138262
H         1.18929573    -0.98414164    -0.33683207    -0.00004970     0.00078632     0.00148491
     6
  Step:    39            Position(A)                                  Velocity(au)
C        -0.67795199    -0.00705543    -0.00055384    -0.00015192     0.00015440    -0.00025610
C         0.64233325    -0.00011508     0.00227048     0.00011897    -0.00006940    -0.00025538
H        -1.17706408     1.00806883    -0.34724376     0.00013669    -0.00088006     0.00166421
H        -1.30356638    -0.88411468    -0.31043770     0.00032965    -0.00033632     0.00140426
H         1.15847720     0.97334031    -0.33134368     0.00001410    -0.00068460     0.00145856
H         1.18910667    -0.98185002    -0.33265669    -0.00008780     0.00088807     0.00156784
     6
  Step:    40            Position(A)                                  Velocity(au)
C        -0.67838131    -0.00662156    -0.00127159    -0.00010173     0.00010233    -0.00016893
C         0.64267161    -0.00030935     0.00155400     0.00008061    -0.00004567    -0.00016879
H        -1.17664178     1.00551672    -0.34257445     0.00010767    -0.00061909     0.00110002
H        -1.30261794    -0.88499713    -0.30650737     0.00022848    -0.00019449     0.00092401
H         1.15848151     0.97135431    -0.32725241    -0.00000636    -0.00048179     0.00096369
H         1.18881552    -0.97928456    -0.32825722    -0.00007812     0.00062017     0.00103661
     6
  Step:    41            Position(A)                                  Velocity(au)
C        -0.67867265    -0.00633051    -0.00175056    -0.00011116     0.00011043    -0.00018127
C         0.64290429    -0.00043861     0.00107477     0.00008937    -0.00004884    -0.00018159
H        -1.17630137     1.00368318    -0.33945119     0.00014063    -0.00072058     0.00118340
H        -1.30194784    -0.88549243    -0.30389198     0.00026117    -0.00016800     0.00098837
H         1.15843215     0.96992735    -0.32451693    -0.00002914    -0.00056067     0.00103633
H         1.18855326    -0.97745671    -0.32531334    -0.00011305     0.00071533     0.00111571
     6
  Step:    42            Position(A)                                  Velocity(au)
C        -0.67898926    -0.00601760    -0.00226297    -0.00012020     0.00011830    -0.00019338
C         0.64316040    -0.00057646     0.00056085     0.00009772    -0.00005195    -0.00019415
H        -1.17587263     1.00157570    -0.33610214     0.00017217    -0.00081923     0.00126509
H        -1.30118954    -0.88591594    -0.30110174     0.00029291    -0.00014207     0.00105186
H         1.15832214     0.96828786    -0.32158449    -0.00005062    -0.00063705     0.00110767
H         1.18819724    -0.97537225    -0.32215516    -0.00014659     0.00080765     0.00119327
     6
  Step:    43            Position(A)                                  Velocity(au)
C        -0.67933004    -0.00568348    -0.00280821    -0.00012881     0.00012593    -0.00020526
C         0.64343874    -0.00072272     0.00001290     0.00010561    -0.00005499    -0.00020646
H        -1.17535975     0.99920260    -0.33253215     0.00020207    -0.00091463     0.00134491
H        -1.30034583    -0.88626947    -0.29813909     0.00032356    -0.00011690     0.00111442
H         1.15815528     0.96644319    -0.31845880    -0.00007063    -0.00071055     0.00117761
H         1.18775154    -0.97303950    -0.31878707    -0.00017853     0.00089671     0.00126916
     6
  Step:    44            Position(A)                                  Velocity(au)
C        -0.67969375    -0.00532886    -0.00338559    -0.00013695     0.00013329    -0.00021689
C         0.64373799    -0.00087719    -0.00056833     0.00011300    -0.00005795    -0.00021849
H        -1.17476746     0.99657336    -0.32874652     0.00023014    -0.00100634     0.00142272
H        -1.29941990    -0.88655531    -0.29500671     0.00035298    -0.00009266     0.00117598
H         1.15793586     0.96440168    -0.31514386    -0.00008898    -0.00078084     0.00124604
H         1.18722081    -0.97046791    -0.31521386    -0.00020867     0.00098212     0.00134322
     6