
 define (thor01) : TURBOMOLE V6.4 2 Apr 2012 at 15:30:49
 Copyright (C) 2012 TURBOMOLE GmbH, Karlsruhe


    2019-12-02 14:10:07.425 

             OPERATING SYSTEM = unix
                    HOST NAME = thor01
   STANDARD BASIS SET LIBRARY = /opt/TURBOMOLE/basen/
  ALTERNATE BASIS SET LIBRARY = /opt/TURBOMOLE/basold/
 LIBRARY FOR RI-J  BASIS SETS = /opt/TURBOMOLE/jbasen/
 LIBRARY FOR RI-JK BASIS SETS = /opt/TURBOMOLE/jkbasen/
 LIBRARY FOR RIMP2/RICC2 SETS = /opt/TURBOMOLE/cbasen/
 LIBRARY FOR RIR12 BASIS SETS = /opt/TURBOMOLE/cabasen/
            STRUCTURE LIBRARY = /opt/TURBOMOLE/structures/

 
 ***********************************************************
 *                                                         *
 *                       D E F I N E                       *
 *                                                         *
 *         TURBOMOLE'S  INTERACTIVE  INPUT  PROGRAM        *
 *                                                         *
 *  Quantum Chemistry Group       University of Karlsruhe  *
 *                                                         *
 ***********************************************************
 

 DATA WILL BE WRITTEN TO THE NEW FILE control

 IF YOU WANT TO READ DEFAULT-DATA FROM ANOTHER control-TYPE FILE,
 THEN ENTER ITS LOCATION/NAME OR OTHERWISE HIT >return<.

 
 INPUT TITLE OR 
 ENTER & TO REPEAT DEFINITION OF DEFAULT INPUT FILE 

 SPECIFICATION OF MOLECULAR GEOMETRY ( #ATOMS=0     SYMMETRY=c1  )
 YOU MAY USE ONE OF THE FOLLOWING COMMANDS : 
 sy <group> <eps> : DEFINE MOLECULAR SYMMETRY (default for eps=3d-1)
 desy <eps>       : DETERMINE MOLECULAR SYMMETRY AND ADJUST 
                     COORDINATES (default for eps=1d-6)
 susy             : ADJUST COORDINATES FOR SUBGROUPS
 ai               : ADD ATOMIC COORDINATES INTERACTIVELY
 a <file>         : ADD ATOMIC COORDINATES FROM FILE <file>
 aa <file>        : ADD ATOMIC COORDINATES IN ANGSTROEM UNITS FROM FILE <file>
 sub              : SUBSTITUTE AN ATOM BY A GROUP OF ATOMS
 i                : INTERNAL COORDINATE MENU 
 ired             : REDUNDANT INTERNAL COORDINATES
 red_info         : DISPLAY REDUNDANT INTERNAL COORDINATES
 ff               : UFF-FORCEFIELD CALCULATION
 m                : MANIPULATE GEOMETRY
 frag             : Define Fragments for BSSE calculation
 w <file>         : WRITE MOLECULAR COORDINATES TO FILE <file> 
 r <file>         : RELOAD ATOMIC AND INTERNAL COORDINATES FROM FILE <file>
 name             : CHANGE ATOMIC IDENTIFIERS 
 del              : DELETE ATOMS 
 dis              : DISPLAY MOLECULAR GEOMETRY 
 banal            : CARRY OUT BOND ANALYSIS 
 *                : TERMINATE MOLECULAR GEOMETRY SPECIFICATION 
                     AND WRITE GEOMETRY DATA TO CONTROL FILE 

 IF YOU APPEND A QUESTION MARK TO ANY COMMAND AN EXPLANATION
 OF THAT COMMAND MAY BE GIVEN 


 CARTESIAN COORDINATES FOR   6 ATOMS HAVE SUCCESSFULLY 
 BEEN ADDED. 

 keyword $intdef  missing in file <coord>

 DEFINITIONS OF INTERNAL COORDINATES HAVE  N O T  BEEN READ. 

 keyword $user-defined bonds missing in file <coord>

 SPECIFICATION OF BOND TOPOLOGY HAS  N O T  BEEN READ. 

 SPECIFICATION OF MOLECULAR GEOMETRY ( #ATOMS=6     SYMMETRY=c1  )
 YOU MAY USE ONE OF THE FOLLOWING COMMANDS : 
 sy <group> <eps> : DEFINE MOLECULAR SYMMETRY (default for eps=3d-1)
 desy <eps>       : DETERMINE MOLECULAR SYMMETRY AND ADJUST 
                     COORDINATES (default for eps=1d-6)
 susy             : ADJUST COORDINATES FOR SUBGROUPS
 ai               : ADD ATOMIC COORDINATES INTERACTIVELY
 a <file>         : ADD ATOMIC COORDINATES FROM FILE <file>
 aa <file>        : ADD ATOMIC COORDINATES IN ANGSTROEM UNITS FROM FILE <file>
 sub              : SUBSTITUTE AN ATOM BY A GROUP OF ATOMS
 i                : INTERNAL COORDINATE MENU 
 ired             : REDUNDANT INTERNAL COORDINATES
 red_info         : DISPLAY REDUNDANT INTERNAL COORDINATES
 ff               : UFF-FORCEFIELD CALCULATION
 m                : MANIPULATE GEOMETRY
 frag             : Define Fragments for BSSE calculation
 w <file>         : WRITE MOLECULAR COORDINATES TO FILE <file> 
 r <file>         : RELOAD ATOMIC AND INTERNAL COORDINATES FROM FILE <file>
 name             : CHANGE ATOMIC IDENTIFIERS 
 del              : DELETE ATOMS 
 dis              : DISPLAY MOLECULAR GEOMETRY 
 banal            : CARRY OUT BOND ANALYSIS 
 *                : TERMINATE MOLECULAR GEOMETRY SPECIFICATION 
                     AND WRITE GEOMETRY DATA TO CONTROL FILE 

 IF YOU APPEND A QUESTION MARK TO ANY COMMAND AN EXPLANATION
 OF THAT COMMAND MAY BE GIVEN 


 YOU DID NOT YET DEFINE ANY INTERNAL COORDINATES !

 ONLY AN INCOMPLETE SET OF   -1 INTERNALS SPECIFIED
 RECOMMENDATION: USE CARTESIAN COORDINATES (ENTER no BELOW)
 FOR ANY OTHER ANSWER YOU RETURN TO THE PREVIOUS MENU AGAIN

 IF YOU DO NOT WANT TO USE INTERNAL COORDINATES ENTER  no


 GEOMETRY DATA WILL BE WRITTEN TO FILE coord


 SUPPLYING BASIS SETS TO    6 ATOMS 
 #                                                                       
 #                   BASIS SET LIBRARY FOR CARBON                        
 #            ECPs, HONDO-BASIS SETS FROM basen AND                      
 #     FULLY OPTIMIZED BASIS SETS FROM newbas MERGED 02/6/93             
 #                                                                       
 #         abbreviation hondo refers to the version 7.0 of HONDO         
 #                                                                       
 ########################################################################
 #       HF limit : E(3P) = -37.688619 a.u. (C. Froese Fischer, 1977)    
 ########################################################################
 #       Roothaan parameters for C(3P) in symmetry I:                    
 #        a = 3/4      b = 3/2                                           
 ########################################################################
 #                                                                       
 c def-SV(P)                                                             
 c def2-SVP                                                              
 c dhf-SVP                                                               
 c dhf-SVP-2c                                                            
 c def2-SV(P)                                                            
 c dhf-SV(P)                                                             
 c dhf-SV(P)-2c                                                          
 # c (7s4p1d)/[3s2p1d] {511/31/1}                                        
 # ROHF(equiv) energy is -37.64114337919 a.u.  (virial theorem = 2.000000
 # UHF(noneq)  energy is -37.64522986135 a.u.  (virial theorem = 2.000084
 #                                                                       
 #                    BASIS SET LIBRARY FOR HYDROGEN                     
 #            ECPs, HONDO-BASIS SETS FROM basen AND                      
 #     FULLY OPTIMIZED BASIS SETS FROM newbas MERGED 02/6/93             
 #                                                                       
 #         abbreviation hondo refers to the version 7.0 of HONDO         
 #                                                                       
 ########################################################################
 #       HF limit : E(2S) = -0.5 a.u.                                    
 ########################################################################
 #       Roothaan parameters for H(2S):                                  
 #        a = 0      b = 0                                               
 ########################################################################
 #                                                                       
 h def-SV(P)                                                             
 h def2-SV(P)                                                            
 h dhf-SV(P)                                                             
 h dhf-SV(P)-2c                                                          
 # HF(equiv) energy is -0.49927840571 a.u.  (virial theorem = 2.000000001
 # (4s)/[2s] {31}                                                        
 # H. Horn, Aug. 91                                                      
 
 ==============================================================================
 NOTE: Improved basis sets are available for H-Rn ("def2-bases").
 For further information type "bi".
 ==============================================================================

 ATOMIC ATTRIBUTE DEFINITION MENU  ( #atoms=6     #bas=6     #ecp=0     )

 b    : ASSIGN ATOMIC BASIS SETS 
 bb   : b RESTRICTED TO BASIS SET LIBRARY 
 bl   : LIST ATOMIC BASIS SETS ASSIGNED
 bm   : MODIFY DEFINITION OF ATOMIC BASIS SET
 bp   : SWITCH BETWEEN 5d/7f AND 6d/10f
 lib  : SELECT BASIS SET LIBRARY
 ecp  : ASSIGN EFFECTIVE CORE POTENTIALS 
 ecpb : ecp RESTRICTED TO BASIS SET LIBRARY 
 ecpi : GENERAL INFORMATION ABOUT EFFECTIVE CORE POTENTIALS
 ecpl : LIST EFFECTIVE CORE POTENTIALS ASSIGNED
 ecprm: REMOVE EFFECTIVE CORE POTENTIAL(S)
 c    : ASSIGN NUCLEAR CHARGES (IF DIFFERENT FROM DEFAULTS) 
 cem  : ASSIGN NUCLEAR CHARGES FOR EMBEDDING 
 m    : ASSIGN ATOMIC MASSES (IF DIFFERENT FROM DEFAULTS) 
 dis  : DISPLAY MOLECULAR GEOMETRY 
 dat  : DISPLAY ATOMIC ATTRIBUTES YET ESTABLISHED 
 h    : EXPLANATION OF ATTRIBUTE DEFINITION SYNTAX 
 *    : TERMINATE THIS SECTION AND WRITE DATA OR DATA REFERENCES TO control
 GOBACK=& (TO GEOMETRY MENU !)


 SUPPLYING BASIS SETS TO    6 ATOMS 
 #                                                                       
 #                   BASIS SET LIBRARY FOR CARBON                        
 #            ECPs, HONDO-BASIS SETS FROM basen AND                      
 #     FULLY OPTIMIZED BASIS SETS FROM newbas MERGED 02/6/93             
 #                                                                       
 #         abbreviation hondo refers to the version 7.0 of HONDO         
 #                                                                       
 ########################################################################
 #       HF limit : E(3P) = -37.688619 a.u. (C. Froese Fischer, 1977)    
 ########################################################################
 #       Roothaan parameters for C(3P) in symmetry I:                    
 #        a = 3/4      b = 3/2                                           
 ########################################################################
 #                                                                       
 c def-TZVP                                                              
 # c (11s6p1d)/[5s3p1d] {62111/411/1}                                    
 # ROHF(equiv) energy is -37.68747478956 a.u.  (virial theorem = 2.000000
 # UHF(noneq)  energy is -37.69147767865 a.u.  (virial theorem = 2.000136
 #                                                                       
 #                    BASIS SET LIBRARY FOR HYDROGEN                     
 #            ECPs, HONDO-BASIS SETS FROM basen AND                      
 #     FULLY OPTIMIZED BASIS SETS FROM newbas MERGED 02/6/93             
 #                                                                       
 #         abbreviation hondo refers to the version 7.0 of HONDO         
 #                                                                       
 ########################################################################
 #       HF limit : E(2S) = -0.5 a.u.                                    
 ########################################################################
 #       Roothaan parameters for H(2S):                                  
 #        a = 0      b = 0                                               
 ########################################################################
 #                                                                       
 h def-TZVP                                                              
 h def2-TZVP                                                             
 h dhf-TZVP                                                              
 h dhf-TZVP-2c                                                           
 # h (5s1p)/[3s1p] {311/1}                                               
 # HF(equiv) energy is -0.49980983223 a.u.  (virial theorem = 2.000000075

 ATOMIC ATTRIBUTE DEFINITION MENU  ( #atoms=6     #bas=6     #ecp=0     )

 b    : ASSIGN ATOMIC BASIS SETS 
 bb   : b RESTRICTED TO BASIS SET LIBRARY 
 bl   : LIST ATOMIC BASIS SETS ASSIGNED
 bm   : MODIFY DEFINITION OF ATOMIC BASIS SET
 bp   : SWITCH BETWEEN 5d/7f AND 6d/10f
 lib  : SELECT BASIS SET LIBRARY
 ecp  : ASSIGN EFFECTIVE CORE POTENTIALS 
 ecpb : ecp RESTRICTED TO BASIS SET LIBRARY 
 ecpi : GENERAL INFORMATION ABOUT EFFECTIVE CORE POTENTIALS
 ecpl : LIST EFFECTIVE CORE POTENTIALS ASSIGNED
 ecprm: REMOVE EFFECTIVE CORE POTENTIAL(S)
 c    : ASSIGN NUCLEAR CHARGES (IF DIFFERENT FROM DEFAULTS) 
 cem  : ASSIGN NUCLEAR CHARGES FOR EMBEDDING 
 m    : ASSIGN ATOMIC MASSES (IF DIFFERENT FROM DEFAULTS) 
 dis  : DISPLAY MOLECULAR GEOMETRY 
 dat  : DISPLAY ATOMIC ATTRIBUTES YET ESTABLISHED 
 h    : EXPLANATION OF ATTRIBUTE DEFINITION SYNTAX 
 *    : TERMINATE THIS SECTION AND WRITE DATA OR DATA REFERENCES TO control
 GOBACK=& (TO GEOMETRY MENU !)


 BASIS SETS WILL BE WRITTEN TO FILE basis BY DEFAULT


              ATOMIC COORDINATES              ATOM SHELLS CHARGE PSEUDO MASS
    -1.29042413    0.01133477   -0.11694453    c      9      6.     0 12.011
     1.21985870   -0.03307149   -0.07310910    c      9      6.     0 12.011
    -2.20316174    1.81316783   -0.24513318    h      4      1.     0  1.008
    -2.48102435   -1.64937349    0.25258845    h      4      1.     0  1.008
     2.08180929    1.80174364   -0.34015671    h      4      1.     0  1.008
     2.38975141   -1.64982916    0.13843582    h      4      1.     0  1.008
 

 we will work with the  1s 3p 5d  7f  9g basis set


 there are 1 real representations :   a   

 OCCUPATION NUMBER & MOLECULAR ORBITAL DEFINITION MENU 

 CHOOSE COMMAND 
 infsao     : OUTPUT SAO INFORMATION 
 atb        : Switch for writing MOs in ASCII or binary format
 eht        : PROVIDE MOS && OCCUPATION NUMBERS FROM EXTENDED HUECKEL GUESS 
 use <file> : SUPPLY MO INFORMATION USING DATA FROM <file> 
 man        : MANUAL SPECIFICATION OF OCCUPATION NUMBERS 
 hcore      : HAMILTON CORE GUESS FOR MOS
 flip       : FLIP SPIN OF A SELECTED ATOM
 &          : MOVE BACK TO THE ATOMIC ATTRIBUTES MENU
 THE COMMANDS  use  OR  eht  OR  *  OR q(uit) TERMINATE THIS MENU !!! 
 FOR EXPLANATIONS APPEND A QUESTION MARK (?) TO ANY COMMAND 


 PROVIDING EHT AOS FOR THE FOLLOWING SET OF ATOMS :
     1 c            2 c       
 for the   6 electrons of the actual atom you have
 to provide at least basis functions for the AO's :   2s  1p  0d  0f


 reading orbital data 3P(DZ)  from file /opt/TURBOMOLE/basen/c . 

 

 PROVIDING EHT AOS FOR THE FOLLOWING SET OF ATOMS :
     3 h            4 h            5 h            6 h       
 for the   1 electrons of the actual atom you have
 to provide at least basis functions for the AO's :   1s  0p  0d  0f


 reading orbital data 2S(DZ)  from file /opt/TURBOMOLE/basen/h . 

 

    sao summary :
   irrep      number of sao's referring to
                old basis    new basis
    a              14           62

 EFFECTIVE NUMBER OF NON-VANISHING CARTESIAN 
 OVERLAP MATRIX ELEMENTS   :    3080


 DO YOU WANT THE DEFAULT PARAMETERS FOR THE EXTENDED HUECKEL CALCULATION ? 
 DEFAULT=y   HELP=? 


 ENTER THE MOLECULAR CHARGE  (DEFAULT=0) 


 NUMBER OF ELECTRONS IN YOUR MOLECULE IS   16


 AUTOMATIC OCCUPATION NUMBER ASSIGNMENT ESTABLISHED !
 FOUND CLOSED SHELL SYSTEM !
 HOMO/LUMO-SEPARATION :  0.228696
 ORBITAL  SYMMETRY      ENERGY     DEFAULT 
 (SHELL)    TYPE                 OCCUPATION 
     5     5a          -0.60631      2
     6     6a          -0.51404      2
     7     7a          -0.50677      2
     8     8a          -0.49953      2
     9     9a          -0.27083      0
    10    10a           0.42901      0
    11    11a           0.60204      0

 DO YOU ACCEPT THIS OCCUPATION ?  DEFAULT=y 


 projection quality sqrt{sum[1-<i|i>]}/korb irrep a    :  0.55D-02

 PROVIDING  'derivative'  DEFAULT PARAMETERS ...

 PROVIDING FORCE RELAXATION DEFAULT PARAMETERS ...

 FILE SPACE LOCKING WILL BE DISABLED BY DEFAULT !


 GENERAL MENU : SELECT YOUR TOPIC 
 scf    : SELECT NON-DEFAULT SCF PARAMETER 
 mp2    : OPTIONS AND DATA GROUPS FOR rimp2 and mpgrad
 cc     : OPTIONS AND DATA GROUPS FOR ricc2
 ex     : EXCITED STATE AND RESPONSE OPTIONS
 prop   : SELECT TOOLS FOR SCF-ORBITAL ANALYSIS 
 drv    : SELECT NON-DEFAULT INPUT PARAMETER FOR EVALUATION
          OF ANALYTICAL ENERGY DERIVATIVES 
          (GRADIENTS, FORCE CONSTANTS) 
 rex    : SELECT OPTIONS FOR GEOMETRY UPDATES USING RELAX
 stp    : SELECT NON-DEFAULT STRUCTURE OPTIMIZATION PARAMETER
 e      : DEFINE EXTERNAL ELECTROSTATIC FIELD 
 dft    : DFT Parameters 
 ri     : RI Parameters 
 rijk   : RI-JK-HF Parameters 
 senex  : seminumeric exchange parameters 
 hybno  : hybrid Noga/Diag parameters
 dsp    : DFT dispersion correction
 trunc  : USE TRUNCATED AUXBASIS DURING ITERATIONS 
 marij  : MULTIPOLE ACCELERATED RI-J 
 dis    : DISPLAY MOLECULAR GEOMETRY 
 list   : LIST OF CONTROL FILE 
 &      : GO BACK TO OCCUPATION/ORBITAL ASSIGNMENT MENU
 * or q : END OF DEFINE SESSION 



STATUS OF DFT_OPTIONS:
 DFT is NOT used
   functional b-p
     gridsize m3

 ENTER DFT-OPTION TO BE MODIFIED 

 func    : TO CHANGE TYPE OF FUNCTIONAL 
 grid    : TO CHANGE GRIDSIZE 
  on:   TO SWITCH ON  DFT 
 Just <ENTER>, q or '*' terminate this menu.

 SURVEY OF AVAILABLE EXCHANGE-CORRELATION ENERGY FUNCTIONALS

 FUNCTIONAL      | TYPE | EXCHANGE       | CORRELATION    | REFERENCES
 ---------------------------------------------------------------------
 slater-dirac-   | LDA  | S              |                | 1,2
 exchange        |      |                |                |
 s-vwn           | LDA  | S              | VWN(V)         | 1-3
 vwn             | LDA  |                | VWN(V)         | 3
 s-vwn_Gaussian  | LDA  | S              | VWN(III)       | 1-3
 pwlda           | LDA  | S              | PW             | 1,2,4
 becke-exchange  | GGA  | S+B88          |                | 1,2,5
 b-lyp           | GGA  | S+B88          | LYP            | 1,2,6
 b-vwn           | GGA  | S+B88          | VWN(V)         | 1-3,5
 lyp             | GGA  |                | LYP            | 6
 b-p             | GGA  | S+B88          | VWN(V)+P86     | 1-3,5,7
 pbe             | GGA  | S+PBE(X)       | PW+PBE(C)      | 1,2,4,8
 tpss            | MGGA | S+TPSS(X)      | PW+TPSS(C)     | 1,2,4,14
 bh-lyp          | HYB  | 0.5(S+B88)     | LYP            | 1,2,5,6,9
                 |      | +0.5HF         |                |
 b3-lyp          | HYB  | 0.8S+0.72B88   | 0.19VWN(V)     | 1-3,5,6,10
                 |      | +0.2HF         | +0.81LYP       |
 b3-lyp_Gaussian | HYB  | 0.8S+0.72B88   | 0.19VWN(III)   | 1-3,5,6,10
                 |      | +0.2HF         | +0.81LYP       |
 pbe0            | HYB  | 0.75(S+PBE(X)) | PW+PBE(C)      | 1,2,4,8,11
                 |      | +0.25HF        |                |
 tpssh           | HYB  | 0.9(S+TPSS(X)) | PW+TPSS(C)     | 1,2,4,14,15
                 |      | +0.1HF         |                |
 lhf             | EXX  | EXX            |                | 12,13
 b97-d           | GGA  | B97 refit      | B97 refit      | 16
 b2-plyp         | DHYB |0.47(SB88)+0.53HF|0.73LYP+0.27PT2| 17


 REFERENCES:
 [1] Dirac, P.A.M., Proc. Royal Soc. (London) A 123 (1929), 714.
 [2] Slater, J.C., Phys. Rev. 81 (1951), 385.
 [3] Vosko, S.H., Wilk, L., Nusair, M., Can. J. Phys. 58 (1980), 1200.
 [4] Perdew, J.P., Wang, Y., Phys. Rev. B 45 (1992), 13244.
 [5] Becke, A.D., Phys. Rev. A 38 (1988), 3098.
 [6] Lee, C., Yang, W., Parr, R.G., Phys. Rev. B 37 (1988), 785.
 [7] Perdew, J.P., Phys. Rev. B 33 (1986), 8822.
 [8] Perdew, J.P., Burke, K., Ernzerhof, M., Phys. Rev. Lett. 77 (1996), 3865.
 [9] Becke, A.D., J. Chem. Phys. 98 (1993), 1372.
[10] Becke, A.D., J. Chem. Phys. 98 (1993), 5648.
[11] Perdew, J.P., Ernzerhof, M., Burke, K., J. Chem. Phys. 105 (1996), 9982.
[12] Della Sala, F., Goerling, A., J. Chem. Phys. 115 (2001), 5718.
[13] Della Sala, F., Goerling, A., J. Chem. Phys. 116 (2002), 5374.
[14] Tao, J., Perdew, J.P., Staroverov, V.N., Scuseria, G.E, Phys. Rev. Lett.
     91 (2003), 146401.
[15] Staroverov, V.N., Scuseria, G.E, Tao, J., Perdew, J.P., J. Chem. Phys.
     119 (2003), 12129.
[16] Grimme, S., J. Comput. Chem. 27, (2006), 1787
     (add $disp for dispersion correction)
[17] Grimme, S., J. Chem. Phys. 124, (2006), 034108



STATUS OF DFT_OPTIONS:
 DFT is NOT used
   functional b3-lyp
     gridsize m3

 ENTER DFT-OPTION TO BE MODIFIED 

 func    : TO CHANGE TYPE OF FUNCTIONAL 
 grid    : TO CHANGE GRIDSIZE 
  on:   TO SWITCH ON  DFT 
 Just <ENTER>, q or '*' terminate this menu.


STATUS OF DFT_OPTIONS:
 DFT is used
   functional b3-lyp
     gridsize m3

 ENTER DFT-OPTION TO BE MODIFIED 

 func    : TO CHANGE TYPE OF FUNCTIONAL 
 grid    : TO CHANGE GRIDSIZE 
  off:  TO SWITCH OFF DFT 
 Just <ENTER>, q or '*' terminate this menu.

 GENERAL MENU : SELECT YOUR TOPIC 
 scf    : SELECT NON-DEFAULT SCF PARAMETER 
 mp2    : OPTIONS AND DATA GROUPS FOR rimp2 and mpgrad
 cc     : OPTIONS AND DATA GROUPS FOR ricc2
 ex     : EXCITED STATE AND RESPONSE OPTIONS
 prop   : SELECT TOOLS FOR SCF-ORBITAL ANALYSIS 
 drv    : SELECT NON-DEFAULT INPUT PARAMETER FOR EVALUATION
          OF ANALYTICAL ENERGY DERIVATIVES 
          (GRADIENTS, FORCE CONSTANTS) 
 rex    : SELECT OPTIONS FOR GEOMETRY UPDATES USING RELAX
 stp    : SELECT NON-DEFAULT STRUCTURE OPTIMIZATION PARAMETER
 e      : DEFINE EXTERNAL ELECTROSTATIC FIELD 
 dft    : DFT Parameters 
 ri     : RI Parameters 
 rijk   : RI-JK-HF Parameters 
 senex  : seminumeric exchange parameters 
 hybno  : hybrid Noga/Diag parameters
 dsp    : DFT dispersion correction
 trunc  : USE TRUNCATED AUXBASIS DURING ITERATIONS 
 marij  : MULTIPOLE ACCELERATED RI-J 
 dis    : DISPLAY MOLECULAR GEOMETRY 
 list   : LIST OF CONTROL FILE 
 &      : GO BACK TO OCCUPATION/ORBITAL ASSIGNMENT MENU
 * or q : END OF DEFINE SESSION 



 MAIN MENU FOR RESPONSE CALCULATIONS

 OPTION | STATUS | DESCRIPTION
 -------------------------------------------------------------------
 rpas   | off    | RPA SINGLET EXCITATIONS (TDHF OR TDDFT)
 ciss   | off    | TDA SINGLET EXCITATIONS (CI SINGLES)
 rpat   | off    | RPA TRIPLET EXCITATIONS (TDHF OR TDDFT)
 cist   | off    | TDA TRIPLET EXCITATIONS (CI SINGLES)
 polly  | off    | STATIC POLARIZABILITY
 dynpol | off    | DYNAMIC POLARIZABILITY
 single | off    | SINGLET STABILITY ANALYSIS
 triple | off    | TRIPLET STABILITY ANALYSIS
 nonrel | off    | NON-REAL STABILITY ANALYSIS

 ENTER <OPTION> TO SWITCH ON/OFF OPTION, * OR q TO QUIT



 MAIN MENU FOR RESPONSE CALCULATIONS

 OPTION | STATUS | DESCRIPTION
 -------------------------------------------------------------------
 rpas   | on     | RPA SINGLET EXCITATIONS (TDHF OR TDDFT)
 ciss   | off    | TDA SINGLET EXCITATIONS (CI SINGLES)
 rpat   | off    | RPA TRIPLET EXCITATIONS (TDHF OR TDDFT)
 cist   | off    | TDA TRIPLET EXCITATIONS (CI SINGLES)
 polly  | off    | STATIC POLARIZABILITY
 dynpol | off    | DYNAMIC POLARIZABILITY
 single | off    | SINGLET STABILITY ANALYSIS
 triple | off    | TRIPLET STABILITY ANALYSIS
 nonrel | off    | NON-REAL STABILITY ANALYSIS

 ENTER <OPTION> TO SWITCH ON/OFF OPTION, * OR q TO QUIT



              +--------------------------------------------------+
              | Atomic coordinate, charge and isotop information |
              +--------------------------------------------------+


              atomic coordinates              atom shells charge pseudo isotop
    -1.29042413    0.01133477   -0.11694453    c      9    6.000    0     0
     1.21985870   -0.03307149   -0.07310910    c      9    6.000    0     0
    -2.20316174    1.81316783   -0.24513318    h      4    1.000    0     0
    -2.48102435   -1.64937349    0.25258845    h      4    1.000    0     0
     2.08180929    1.80174364   -0.34015671    h      4    1.000    0     0
     2.38975141   -1.64982916    0.13843582    h      4    1.000    0     0
 

     center of nuclear mass  :   -0.03785147    0.00203684   -0.08834964

     center of nuclear charge:   -0.03975113    0.01158053   -0.08341171


              +--------------------------------------------------+
              |               basis set information              |
              +--------------------------------------------------+


              we will work with the  1s 3p 5d  7f  9g ... basis set
              ...i.e. with spherical basis functions...


   type   atoms  prim   cont   basis
   ---------------------------------------------------------------------------
    c        2     34     19   def-TZVP   [5s3p1d|11s6p1d]
    h        4      8      6   def-TZVP   [3s1p|5s1p]
   ---------------------------------------------------------------------------
   total:    6    100     62
   ---------------------------------------------------------------------------

   total number of primitive shells          :   24
   total number of contracted shells         :   34
   total number of cartesian basis functions :   64
   total number of SCF-basis functions       :   62


 symmetry group of the molecule :   c1 

 the group has the following generators :
   c1(z)

    1 symmetry operations found

 there are 1 real representations :   a   

 maximum number of shells which are related by symmetry :  1


 determining totally symmetric integral contributions 
    - equivalent to irreducible tensor elements - 
 which can be formed within each triple of representations :

             representation triple      contributions

              a     a     a               1

    mo occupation :
   irrep   mo's   occupied
    a       62        8
 
 number of basis functions   :           62
 number of occupied orbitals :            8
 
 all orbitals will be included in the transformation

 number of non-frozen orbitals          :    62
 number of non-frozen occupied orbitals :     8


 STATE SELECTION MENU

 IRREP |  #STATES  | #SELECTED |
 ----------------------------------------------------------------
  a    |      432  |        0  | x y z Lx Ly Lz 1.85xx+1.85yy+zz
       |           |           | xz yz xy xx-yy xx+yy-2.51zz

 SELECT IRREP AND NUMBER OF STATES
 ENTER ? FOR HELP, * OR Q TO QUIT, & TO GO BACK



 STATE SELECTION MENU

 IRREP |  #STATES  | #SELECTED |
 ----------------------------------------------------------------
  a    |      432  |        1  | x y z Lx Ly Lz 1.85xx+1.85yy+zz
       |           |           | xz yz xy xx-yy xx+yy-2.51zz

 SELECT IRREP AND NUMBER OF STATES
 ENTER ? FOR HELP, * OR Q TO QUIT, & TO GO BACK



 GENERAL OPTIONS FOR RESPONSE CALCULATIONS

 OPTION  | VALUE  | DESCRIPTION
 -----------------------------------------------------
 rpacor  |    200 | MEMORY (MB) (DEFAULT:   200)
 rpaconv |      5 | CONVERGENCE THRESHOLD (DEFAULT: 5)

 ENTER <OPTION> <VALUE> TO CHANGE OPTION, * OR q TO QUIT


 SET SCF DENSITY CONVERGENCE THRESHOLD $denconv TO 1d-7
 (RECOMMENDED FOR RESPONSE CALCULATIONS) (y/n, DEFAULT:y)?

 GENERAL MENU : SELECT YOUR TOPIC 
 scf    : SELECT NON-DEFAULT SCF PARAMETER 
 mp2    : OPTIONS AND DATA GROUPS FOR rimp2 and mpgrad
 cc     : OPTIONS AND DATA GROUPS FOR ricc2
 ex     : EXCITED STATE AND RESPONSE OPTIONS
 prop   : SELECT TOOLS FOR SCF-ORBITAL ANALYSIS 
 drv    : SELECT NON-DEFAULT INPUT PARAMETER FOR EVALUATION
          OF ANALYTICAL ENERGY DERIVATIVES 
          (GRADIENTS, FORCE CONSTANTS) 
 rex    : SELECT OPTIONS FOR GEOMETRY UPDATES USING RELAX
 stp    : SELECT NON-DEFAULT STRUCTURE OPTIMIZATION PARAMETER
 e      : DEFINE EXTERNAL ELECTROSTATIC FIELD 
 dft    : DFT Parameters 
 ri     : RI Parameters 
 rijk   : RI-JK-HF Parameters 
 senex  : seminumeric exchange parameters 
 hybno  : hybrid Noga/Diag parameters
 dsp    : DFT dispersion correction
 trunc  : USE TRUNCATED AUXBASIS DURING ITERATIONS 
 marij  : MULTIPOLE ACCELERATED RI-J 
 dis    : DISPLAY MOLECULAR GEOMETRY 
 list   : LIST OF CONTROL FILE 
 &      : GO BACK TO OCCUPATION/ORBITAL ASSIGNMENT MENU
 * or q : END OF DEFINE SESSION 

 
 ***********************************************************
 *                                                         *
 *                       e n d   o f                       *
 *                       D E F I N E                       *
 *                                                         *
 *         TURBOMOLE'S  INTERACTIVE  INPUT  PROGRAM        *
 *                                                         *
 *  Quantum Chemistry Group       University of Karlsruhe  *
 *                                                         *
 ***********************************************************


    ------------------------------------------------------------------------
         total  cpu-time :   0.06 seconds
         total wall-time :   0.14 seconds
    ------------------------------------------------------------------------


   ****  define : all done  ****


    2019-12-02 14:10:07.562 

