 operating system is UNIX !
 hostname is         thor01

   OpenMP run-time library returned nthreads =  1

 dscf (thor01) : TURBOMOLE V6.4 3 Apr 2012 at 09:58:30
 Copyright (C) 2012 TURBOMOLE GmbH, Karlsruhe


    2019-12-02 14:10:07.711 



                             d s c f - program

                   idea & directorship : reinhart ahlrichs
                   program development : marco haeser
                                         michael baer
                           dft version : oliver treutler


                          quantum chemistry group
                          universitaet  karlsruhe
                                  germany




                          References             
                                                 
          TURBOMOLE:                             
              R. Ahlrichs, M. Baer, M. Haeser, H. Horn, and
              C. Koelmel
              Electronic structure calculations on workstation
              computers: the program system TURBOMOLE
              Chem. Phys. Lett. 162: 165 (1989)
          Density Functional:                              
              O. Treutler and R. Ahlrichs                      
              Efficient Molecular Numerical Integration Schemes
              J. Chem. Phys. 102: 346 (1995)                   
          Parallel Version:                                
              Performance of parallel TURBOMOLE for Density    
              Functional Calculations                          
              M. v. Arnim and R. Ahlrichs                      
              J. Comp. Chem. 19: 1746 (1998)                   
                                         




              +--------------------------------------------------+
              | Atomic coordinate, charge and isotop information |
              +--------------------------------------------------+


              atomic coordinates              atom shells charge pseudo isotop
    -1.29042413    0.01133477   -0.11694453    c      9    6.000    0     0
     1.21985870   -0.03307149   -0.07310910    c      9    6.000    0     0
    -2.20316174    1.81316783   -0.24513318    h      4    1.000    0     0
    -2.48102435   -1.64937349    0.25258845    h      4    1.000    0     0
     2.08180929    1.80174364   -0.34015671    h      4    1.000    0     0
     2.38975141   -1.64982916    0.13843582    h      4    1.000    0     0
 

     center of nuclear mass  :   -0.03785147    0.00203684   -0.08834964

     center of nuclear charge:   -0.03975113    0.01158053   -0.08341171


              +--------------------------------------------------+
              |               basis set information              |
              +--------------------------------------------------+


              we will work with the  1s 3p 5d  7f  9g ... basis set
              ...i.e. with spherical basis functions...


   type   atoms  prim   cont   basis
   ---------------------------------------------------------------------------
    c        2     34     19   def-TZVP   [5s3p1d|11s6p1d]
    h        4      8      6   def-TZVP   [3s1p|5s1p]
   ---------------------------------------------------------------------------
   total:    6    100     62
   ---------------------------------------------------------------------------

   total number of primitive shells          :   24
   total number of contracted shells         :   34
   total number of cartesian basis functions :   64
   total number of SCF-basis functions       :   62


 integral neglect threshold       :  0.52E-09
 integral storage threshold THIZE :  0.10E-04
 integral storage threshold THIME :         5


 DENSITY CONVERGENCE CHECK SWITCHED ON !
 SCF CONVERGENCE IF RMS(delta[D]) <     0.1000000000E-06


 symmetry group of the molecule :   c1 

 the group has the following generators :
   c1(z)

    1 symmetry operations found

 there are 1 real representations :   a   

 maximum number of shells which are related by symmetry :  1


    mo occupation :
   irrep   mo's   occupied
    a       62        8
 
 number of basis functions   :           62
 number of occupied orbitals :            8
 
  
           ------------------
           density functional
           ------------------
 Becke-3-Parameter hybrid functional: B3-LYP
 exchange:    0.8*LDA + 0.72*B88 + 0.2*HF
 correlation: 0.19*LDA(VWN) + 0.81*LYP
 iterations will be done with small grid
  
 spherical integration : Lebedev's spherical grid
 spherical gridsize    :           3
    i.e. gridpoints    :         302
 value for diffuse not defined
 radial integration    : Chebyshev 2nd kind (scaling 3)
 radial gridsize       :           3
 integration cells     :           6
 partition function    : becke
 partition sharpness   :           3
  

          ------------------------
          nuclear repulsion energy  :   33.5455183157    
          ------------------------

 
          -----------------
          -S,T+V- integrals
          -----------------

 1e-integrals will be neglected if expon. factor < 0.522181E-10
 
   Difference densities algorithm switched on.
   The maximal number of linear combinations of
   difference densities is          20 .

 automatic virtual orbital shift switched on 
      shift if e(lumo)-e(homo) < 0.10000000    


 DIIS switched on: error vector is FDS-SDF
 Max. Iterations for DIIS is     :   4
 DIIS matrix (see manual) 
    Scaling factor of diagonals  :  1.200
    threshold for scaling factor :  0.000

 scf convergence criterion : increment of total energy < .1000000D-05
                  and increment of one-electron energy < .1000000D-02


 <geterg> : there is no data group $energy 

  MOs are in ASCII format !


 reading orbital data $scfmo  from file mos . 

 orbital characterization : expanded
 
 mo provided and orthogonalized by Cholesky decomposition

 DSCF restart information will be dumped onto file mos

          Overall gridpoints after grid construction =          6995
 
                                              current damping :  0.700
 ITERATION  ENERGY          1e-ENERGY        2e-ENERGY     RMS[dD(SAO)]   TOL
   1  -78.243804220570    -167.35056749     55.561244956    0.000D+00 0.521D-09
                            Exc =    -9.523437066834     N = 16.000347788    
          max. resid. norm for Fia-block=  2.488D-01 for orbital      3a         
          max. resid. fock norm         =  8.792D+00 for orbital     41a         
          Delta Eig. =   316.4665057655 eV 
 
                                              current damping :  0.650
 ITERATION  ENERGY          1e-ENERGY        2e-ENERGY     RMS[dD(SAO)]   TOL
   2  -78.491290935461    -169.54730437     57.510495117    0.669D-02 0.332D-09
                            Exc =    -9.756796485459     N = 16.000215972    
          Norm of current diis error:  1.0251    
          max. resid. norm for Fia-block=  1.091D-01 for orbital      3a         
          max. resid. fock norm         =  1.254D-01 for orbital      3a         
          Delta Eig. =   139.7778166478 eV 
 
                                              current damping :  0.500
 ITERATION  ENERGY          1e-ENERGY        2e-ENERGY     RMS[dD(SAO)]   TOL
   3  -78.541841285014    -170.06200647     57.974646873    0.376D-02 0.267D-09
                            Exc =    -9.831607998868     N = 16.000164544    
          Norm of current diis error: 0.49255    
          max. resid. norm for Fia-block=  5.024D-02 for orbital      3a         
          max. resid. fock norm         =  5.625D-02 for orbital      3a         
          Delta Eig. =    60.5070899504 eV 
 
                                              current damping :  0.350
 ITERATION  ENERGY          1e-ENERGY        2e-ENERGY     RMS[dD(SAO)]   TOL
   4  -78.557284452491    -170.46164746     58.358844689    0.245D-02 0.224D-09
                            Exc =    -9.883744347885     N = 16.000140823    
          Norm of current diis error: 0.18027    
          max. resid. norm for Fia-block=  1.840D-02 for orbital      3a         
          max. resid. fock norm         =  2.023D-02 for orbital      3a         
          Delta Eig. =    22.5657655067 eV 
 
                                              current damping :  0.200
 ITERATION  ENERGY          1e-ENERGY        2e-ENERGY     RMS[dD(SAO)]   TOL
   5  -78.559945657791    -170.59899485     58.493530879    0.122D-02 0.200D-09
                            Exc =    -9.903385615666     N = 16.000131377    
          Norm of current diis error: 0.52027E-01
          max. resid. norm for Fia-block=  5.158D-03 for orbital      3a         
          max. resid. fock norm         =  5.610D-03 for orbital      3a         
 mo-orthogonalization: Cholesky decomposition
          Delta Eig. =     6.5510996035 eV 
 
                                              current damping :  0.050
 ITERATION  ENERGY          1e-ENERGY        2e-ENERGY     RMS[dD(SAO)]   TOL
   6  -78.560216628572    -170.65433504     58.548600091    0.466D-03 0.187D-09
                            Exc =    -9.910505344773     N = 16.000128666    
          Norm of current diis error: 0.87129E-02
          max. resid. norm for Fia-block=  1.069D-03 for orbital      8a         
          max. resid. fock norm         =  1.069D-03 for orbital      8a         
          Delta Eig. =     1.2856120236 eV 
 
                                              current damping :  0.100
 ITERATION  ENERGY          1e-ENERGY        2e-ENERGY     RMS[dD(SAO)]   TOL
   7  -78.560225766294    -170.65164577     58.545901692    0.110D-03 0.183D-09
                            Exc =    -9.910762367179     N = 16.000127863    
          Norm of current diis error: 0.39047E-02
          max. resid. norm for Fia-block=  3.141D-04 for orbital      6a         
          max. resid. fock norm         =  5.581D-04 for orbital     61a         
          Delta Eig. =     0.0388851543 eV 
 
                                              current damping :  0.150
 ITERATION  ENERGY          1e-ENERGY        2e-ENERGY     RMS[dD(SAO)]   TOL
   8  -78.560226528464    -170.65854157     58.552796731    0.297D-04 0.181D-09
                            Exc =    -9.911359135507     N = 16.000127904    
          Norm of current diis error: 0.19719E-02
          max. resid. norm for Fia-block=  1.448D-04 for orbital      8a         
          max. resid. fock norm         =  3.365D-04 for orbital     61a         
          Delta Eig. =     0.0082392268 eV 
 
                                              current damping :  0.200
 ITERATION  ENERGY          1e-ENERGY        2e-ENERGY     RMS[dD(SAO)]   TOL
   9  -78.560226746240    -170.65850662     58.552761556    0.126D-04 0.181D-09
                            Exc =    -9.911357614583     N = 16.000127886    
          Norm of current diis error: 0.79749E-03
          max. resid. norm for Fia-block=  5.284D-05 for orbital      8a         
          max. resid. fock norm         =  9.696D-05 for orbital     61a         
          Delta Eig. =     0.0051527603 eV 
 
                                              current damping :  0.050
 ITERATION  ENERGY          1e-ENERGY        2e-ENERGY     RMS[dD(SAO)]   TOL
  10  -78.560226784416    -170.65747277     58.551727672    0.421D-05 0.180D-09
                            Exc =    -9.911271280600     N = 16.000127871    
          Norm of current diis error: 0.76698E-04
          max. resid. norm for Fia-block=  5.565D-06 for orbital      6a         
          max. resid. fock norm         =  6.676D-06 for orbital      6a         
 mo-orthogonalization: Cholesky decomposition
          Delta Eig. =     0.0005685521 eV 

 ENERGY & DENSITY CONVERGED !

          Overall gridpoints after grid construction =         27126
 
                                              current damping :  0.100
 ITERATION  ENERGY          1e-ENERGY        2e-ENERGY     RMS[dD(SAO)]   TOL
  11  -78.560209095633    -170.65762574     58.551898326    0.560D-06 0.178D-09
                            Exc =    -9.911266728737     N = 15.999995061    
          max. resid. norm for Fia-block=  1.385D-06 for orbital      8a         
          max. resid. fock norm         =  1.933D-06 for orbital     61a         

 convergence criteria satisfied after 11 iterations


                  ------------------------------------------ 
                 |  total energy      =    -78.56020909563  |
                  ------------------------------------------ 
                 :  kinetic energy    =     78.19530810652  :
                 :  potential energy  =   -156.75551720215  :
                 :  virial theorem    =      1.99535514234  :
                 :  wavefunction norm =      1.00000000000  :
                  .......................................... 


 <geterg> : there is no data group $energy 


 <skperg> : $end is missing 


 orbitals $scfmo  will be written to file mos

    irrep                  4a          5a          6a          7a          8a   
 eigenvalues H         -0.58057    -0.47672    -0.42076    -0.35839    -0.27758
            eV         -15.7983    -12.9724    -11.4497     -9.7523     -7.5534
 occupation              2.0000      2.0000      2.0000      2.0000      2.0000 

    irrep                  9a         10a         11a         12a         13a   
 eigenvalues H         -0.00296     0.06577     0.09233     0.09664     0.15374
            eV          -0.0807      1.7897      2.5125      2.6298      4.1835
 
 
 
 
 ==============================================================================
                           electrostatic moments
 ==============================================================================
 
              nuc           elec       ->  total
 ------------------------------------------------------------------------------
                          charge      
 ------------------------------------------------------------------------------
          16.000000     -16.000000       0.000000
 
 ------------------------------------------------------------------------------
                       dipole moment  
 ------------------------------------------------------------------------------
   x      -0.636018       0.642706       0.006688
   y       0.185288      -0.170982       0.014306
   z      -1.334587       1.370528       0.035941
 
   | dipole moment | =     0.0393 a.u. =     0.0998 debye 
 
 ------------------------------------------------------------------------------
                     quadrupole moment
 ------------------------------------------------------------------------------
  xx      39.973743     -49.320946      -9.347202
  yy      11.983560     -21.201921      -9.218361
  zz       0.372888     -12.037289     -11.664401
  xy      -0.424176       0.308363      -0.115814
  xz      -0.093573       0.008022      -0.085551
  yz      -1.695797       1.347683      -0.348114
 
     1/3  trace=     -10.076655
     anisotropy=       2.471903
 
 ==============================================================================
 


    ------------------------------------------------------------------------
         total  cpu-time :   1.14 seconds
         total wall-time :   1.22 seconds
    ------------------------------------------------------------------------


   ****  dscf : all done  ****


    2019-12-02 14:10:08.923 

