     6
  Step:     0            Position(A)                                  Velocity(au)
C         6.80883156     7.58463552     7.49857496    -0.00009407    -0.00001176    -0.00008046
N         8.08208443     7.40496134     7.47955237     0.00009165     0.00017824     0.00004090
H         6.22484029     7.96852713     6.64304411    -0.00086291    -0.00001444     0.00014276
H         6.29825834     7.20020461     8.37774242     0.00119435    -0.00019678     0.00005599
H         8.49203870     7.15347109     8.39401177    -0.00077470    -0.00097156     0.00038783
H         8.76298922     7.78160133     6.80691254     0.00029745    -0.00115008    -0.00021296
     6
  Step:     1            Position(A)                                  Velocity(au)
C         6.80848639     7.58461337     7.49835099    -0.00015829    -0.00000443    -0.00008343
N         8.08241007     7.40543171     7.47966454     0.00014647     0.00016579     0.00004121
H         6.22250562     7.96852015     6.64342236    -0.00084426     0.00000902     0.00013443
H         6.30148026     7.19967343     8.37796095     0.00116075    -0.00019196     0.00010460
H         8.48995183     7.15083122     8.39509069    -0.00075148    -0.00095896     0.00040029
H         8.76379535     7.77851750     6.80630084     0.00029262    -0.00110520    -0.00023469
     6
  Step:     2            Position(A)                                  Velocity(au)
C         6.80796583     7.58461127     7.49811865    -0.00022228     0.00000290    -0.00008657
N         8.08288553     7.40586806     7.47977778     0.00020115     0.00015337     0.00004168
H         6.22022286     7.96857648     6.64377934    -0.00082501     0.00003184     0.00012722
H         6.30460672     7.19915471     8.37831448     0.00112460    -0.00018761     0.00015456
H         8.48792870     7.14822632     8.39620107    -0.00072807    -0.00094600     0.00041082
H         8.76458961     7.77555672     6.80562895     0.00028879    -0.00106016    -0.00025695
     6
  Step:     3            Position(A)                                  Velocity(au)
C         6.80727068     7.58462921     7.49787750    -0.00028591     0.00001021    -0.00008986
N         8.08351023     7.40627052     7.47989249     0.00025557     0.00014102     0.00004229
H         6.21799347     7.96869430     6.64411813    -0.00080528     0.00005398     0.00012112
H         6.30763099     7.19864733     8.37880630     0.00108608    -0.00018363     0.00020556
H         8.48596985     7.14565732     8.39733754    -0.00070444    -0.00093273     0.00041937
H         8.76537478     7.77271923     6.80489550     0.00028600    -0.00101509    -0.00027970
     6
  Step:     4            Position(A)                                  Velocity(au)
C         6.80640212     7.58466712     7.49762717    -0.00034905     0.00001749    -0.00009327
N         8.08428327     7.40663932     7.48000906     0.00030959     0.00012876     0.00004305
H         6.21581862     7.96887171     6.64444179    -0.00078518     0.00007541     0.00011614
H         6.31054677     7.19815039     8.37943871     0.00104535    -0.00017993     0.00025721
H         8.48407596     7.14312502     8.39849469    -0.00068054    -0.00091918     0.00042594
H         8.76615379     7.77000494     6.80409922     0.00028428    -0.00097014    -0.00030289
     6
  Step:     5            Position(A)                                  Velocity(au)
C         6.80536166     7.58472484     7.49736739    -0.00041156     0.00002469    -0.00009676
N         8.08520346     7.40697476     7.48012792     0.00036311     0.00011663     0.00004395
H         6.21369913     7.96910672     6.64475333    -0.00076485     0.00009609     0.00011224
H         6.31334827     7.19766327     8.38021304     0.00100259    -0.00017642     0.00030916
H         8.48224784     7.14063011     8.39966710    -0.00065632    -0.00090542     0.00043052
H         8.76692960     7.76741333     6.80323894     0.00028368    -0.00092544    -0.00032648
     6
  Step:     6            Position(A)                                  Velocity(au)
C         6.80415119     7.58480218     7.49709795    -0.00047333     0.00003182    -0.00010032
N         8.08626923     7.40727722     7.48024946     0.00041601     0.00010466     0.00004501
H         6.21163550     7.96939723     6.64505565    -0.00074440     0.00011598     0.00010936
H         6.31603019     7.19718553     8.38112956     0.00095800    -0.00017303     0.00036103
H         8.48048640     7.13817307     8.40084933    -0.00063175    -0.00089151     0.00043313
H         8.76770529     7.76494349     6.80231361     0.00028420    -0.00088116    -0.00035045
     6
  Step:     7            Position(A)                                  Velocity(au)
C         6.80277292     7.58489885     7.49681873    -0.00053422     0.00003883    -0.00010390
N         8.08747871     7.40754719     7.48037410     0.00046816     0.00009288     0.00004622
H         6.20962786     7.96974105     6.64535144    -0.00072396     0.00013506     0.00010743
H         6.31858776     7.19671693     8.38218759     0.00091176    -0.00016969     0.00041247
H         8.47879267     7.13575424     8.40203598    -0.00060678    -0.00087752     0.00043377
H         8.76848395     7.76259408     6.80132227     0.00028585    -0.00083743    -0.00037475
     6
  Step:     8            Position(A)                                  Velocity(au)
C         6.80122945     7.58501455     7.49652970    -0.00059409     0.00004572    -0.00010747
N         8.08882971     7.40778522     7.48050227     0.00051945     0.00008132     0.00004759
H         6.20767598     7.97013592     6.64564319    -0.00070367     0.00015331     0.00010634
H         6.32101679     7.19625743     8.38338545     0.00086408    -0.00016636     0.00046314
H         8.47716780     7.13337373     8.40322172    -0.00058138    -0.00086351     0.00043247
H         8.76926869     7.76036337     6.80026401     0.00028864    -0.00079441    -0.00039937
     6
  Step:     9            Position(A)                                  Velocity(au)
C         6.79952369     7.58514888     7.49623093    -0.00065283     0.00005245    -0.00011101
N         8.09031970     7.40799196     7.48063437     0.00056975     0.00007001     0.00004910
H         6.20577930     7.97057954     6.64593302    -0.00068366     0.00017072     0.00010595
H         6.32331364     7.19580707     8.38472058     0.00081519    -0.00016298     0.00051271
H         8.47561296     7.13103148     8.40440128    -0.00055553    -0.00084957     0.00042928
H         8.77006260     7.75824926     6.79913800     0.00029255    -0.00075222    -0.00042429
     6
  Step:    10            Position(A)                                  Velocity(au)
C         6.79765896     7.58530143     7.49592256    -0.00071030     0.00005902    -0.00011447
N         8.09194582     7.40816812     7.48077082     0.00061896     0.00005897     0.00005077
H         6.20393691     7.97106961     6.64622267    -0.00066404     0.00018729     0.00010612
H         6.32547525     7.19536607     8.38618957     0.00076529    -0.00015950     0.00056090
H         8.47412945     7.12872723     8.40556955    -0.00052922    -0.00083576     0.00042424
H         8.77086873     7.75624931     6.79794348     0.00029756    -0.00071097    -0.00044947
     6
  Step:    11            Position(A)                                  Velocity(au)
C         6.79563889     7.58547168     7.49560484    -0.00076637     0.00006540    -0.00011783
N         8.09370492     7.40831449     7.48091203     0.00066695     0.00004823     0.00005258
H         6.20214753     7.97160386     6.64651340    -0.00064494     0.00020305     0.00010665
H         6.32749921     7.19493472     8.38778826     0.00071462    -0.00015589     0.00060744
H         8.47271855     7.12646054     8.40672155    -0.00050242    -0.00082213     0.00041743
H         8.77169003     7.75436078     6.79667972     0.00030363    -0.00067077    -0.00047491
     6
  Step:    12            Position(A)                                  Velocity(au)
C         6.79346749     7.58565912     7.49527810    -0.00082093     0.00007157    -0.00012106
N         8.09559350     7.40843193     7.48105840     0.00071361     0.00003782     0.00005454
H         6.20040959     7.97218014     6.64680598    -0.00062648     0.00021805     0.00010737
H         6.32938369     7.19451344     8.38951180     0.00066340    -0.00015211     0.00065210
H         8.47138162     7.12423082     8.40785255    -0.00047512    -0.00080874     0.00040892
H         8.77252934     7.75258073     6.79534610     0.00031071    -0.00063167    -0.00050056
     6
  Step:    13            Position(A)                                  Velocity(au)
C         6.79114906     7.58586312     7.49494274    -0.00087384     0.00007751    -0.00012412
N         8.09760780     7.40852132     7.48121032     0.00075884     0.00002773     0.00005664
H         6.19872118     7.97279643     6.64710065    -0.00060877     0.00023235     0.00010808
H         6.33112751     7.19410280     8.39135475     0.00061186    -0.00014810     0.00069467
H         8.47012001     7.12203736     8.40895803    -0.00044732    -0.00079563     0.00039881
H         8.77338938     7.75090602     6.79394204     0.00031875    -0.00059374    -0.00052640
     6
  Step:    14            Position(A)                                  Velocity(au)
C         6.78868825     7.58608302     7.49459925    -0.00092501     0.00008319    -0.00012699
N         8.09974376     7.40858361     7.48136817     0.00080254     0.00001800     0.00005887
H         6.19708009     7.97345091     6.64739709    -0.00059192     0.00024603     0.00010857
H         6.33273011     7.19370347     8.39331111     0.00056023    -0.00014380     0.00073496
H         8.46893512     7.11987935     8.41003374    -0.00041901    -0.00078282     0.00038721
H         8.77427268     7.74933341     6.79246711     0.00032769    -0.00055701    -0.00055237
     6
  Step:    15            Position(A)                                  Velocity(au)
C         6.78608997     7.58631811     7.49424819    -0.00097433     0.00008860    -0.00012965
N         8.10199706     7.40861977     7.48153229     0.00084462     0.00000863     0.00006122
H         6.19548384     7.97414200     6.64769444    -0.00057603     0.00025917     0.00010865
H         6.33419154     7.19331631     8.39537443     0.00050873    -0.00013916     0.00077281
H         8.46782834     7.11775592     8.41107574    -0.00039018    -0.00077034     0.00037421
H         8.77518161     7.74785961     6.79092103     0.00033746    -0.00052149    -0.00057840
     6
  Step:    16            Position(A)                                  Velocity(au)
C         6.78335940     7.58656760     7.49389019    -0.00102172     0.00009371    -0.00013206
N         8.10436316     7.40863080     7.48170301     0.00088500    -0.00000037     0.00006369
H         6.19392965     7.97486838     6.64799131    -0.00056119     0.00027189     0.00010813
H         6.33551246     7.19294235     8.39753780     0.00045757    -0.00013412     0.00080807
H         8.46680111     7.11566618     8.41208038    -0.00036083    -0.00075819     0.00035994
H         8.77611833     7.74648128     6.78930369     0.00034798    -0.00048718    -0.00060443
     6
  Step:    17            Position(A)                                  Velocity(au)
C         6.78050194     7.58683064     7.49352594    -0.00106710     0.00009851    -0.00013420
N         8.10683732     7.40861772     7.48188063     0.00092361    -0.00000901     0.00006626
H         6.19241453     7.97562903     6.64828584    -0.00054751     0.00028428     0.00010684
H         6.33669409     7.19258281     8.39979394     0.00040696    -0.00012858     0.00084059
H         8.46585490     7.11360921     8.41304435    -0.00033093    -0.00074638     0.00034453
H         8.77708477     7.74519509     6.78761524     0.00035916    -0.00045409    -0.00063038
     6
  Step:    18            Position(A)                                  Velocity(au)
C         6.77752316     7.58710634     7.49315620    -0.00111042     0.00010296    -0.00013607
N         8.10941462     7.40858154     7.48206541     0.00096041    -0.00001727     0.00006892
H         6.19093522     7.97642319     6.64857567    -0.00053505     0.00029646     0.00010462
H         6.33773820     7.19223911     8.40213519     0.00035708    -0.00012249     0.00087027
H         8.46499118     7.11158408     8.41396469    -0.00030048    -0.00073490     0.00032811
H         8.77808265     7.74399774     6.78585601     0.00037093    -0.00042220    -0.00065615
     6
  Step:    19            Position(A)                                  Velocity(au)
C         6.77442878     7.58739377     7.49278177    -0.00115163     0.00010707    -0.00013762
N         8.11209003     7.40852330     7.48225756     0.00099536    -0.00002515     0.00007165
H         6.18948824     7.97725044     6.64885804    -0.00052389     0.00030853     0.00010131
H         6.33864704     7.19191288     8.40455362     0.00030811    -0.00011577     0.00089698
H         8.46421148     7.10958986     8.41483885    -0.00026947    -0.00072376     0.00031082
H         8.77911345     7.74288599     6.78402662     0.00038319    -0.00039148    -0.00068165
     6
  Step:    20            Position(A)                                  Velocity(au)
C         6.77122461     7.58769193     7.49240350    -0.00050277     0.00004679    -0.00005863
N         8.11485846     7.40844399     7.48245727     0.00043425    -0.00001379     0.00003143
H         6.18806993     7.97811061     6.64912979    -0.00021708     0.00013537     0.00004087
H         6.33942330     7.19160594     8.40704099     0.00010986    -0.00004575     0.00038874
H         8.46351737     7.10762564     8.41566463    -0.00010045    -0.00030105     0.00012363
H         8.78017841     7.74185662     6.78212794     0.00016715    -0.00015282    -0.00029843
     6
  Step:    21            Position(A)                                  Velocity(au)
C         6.76979775     7.58782474     7.49224169    -0.00054031     0.00005026    -0.00005963
N         8.11608990     7.40839626     7.48254707     0.00046597    -0.00002104     0.00003425
H         6.18748870     7.97849732     6.64923447    -0.00020833     0.00014749     0.00003540
H         6.33965897     7.19149148     8.40813429     0.00006278    -0.00003779     0.00041017
H         8.46328628     7.10681693     8.41597764    -0.00006843    -0.00029050     0.00010520
H         8.78065308     7.74147833     6.78127778     0.00018005    -0.00012410    -0.00032321
     6
  Step:    22            Position(A)                                  Velocity(au)
C         6.76826952     7.58796682     7.49207735    -0.00057689     0.00005356    -0.00006048
N         8.11740693     7.40832892     7.48264459     0.00049683    -0.00002812     0.00003707
H         6.18693054     7.97891724     6.64932338    -0.00020023     0.00015968     0.00002930
H         6.33976666     7.19139928     8.40928431     0.00001633    -0.00002945     0.00043016
H         8.46314310     7.10603686     8.41623997    -0.00003614    -0.00028012     0.00008664
H         8.78116315     7.74117788     6.78036020     0.00019300    -0.00009591    -0.00034769
     6
  Step:    23            Position(A)                                  Velocity(au)
C         6.76664262     7.58811767     7.49191093    -0.00061245     0.00005667    -0.00006115
N         8.11880719     7.40824246     7.48274982     0.00052681    -0.00003502     0.00003988
H         6.18639359     7.97937064     6.64939470    -0.00019285     0.00017198     0.00002250
H         6.33974826     7.19133040     8.41048693    -0.00002939    -0.00002071     0.00044859
H         8.46308862     7.10528487     8.41645149    -0.00000354    -0.00026997     0.00006810
H         8.78170865     7.74095377     6.77937617     0.00020592    -0.00006830    -0.00037176
     6
  Step:    24            Position(A)                                  Velocity(au)
C         6.76491991     7.58827678     7.49174289    -0.00064694     0.00005959    -0.00006165
N         8.12028816     7.40813737     7.48286270     0.00055584    -0.00004174     0.00004266
H         6.18587581     7.97985785     6.64944646    -0.00018622     0.00018443     0.00001497
H         6.33960594     7.19128603     8.41173776    -0.00007425    -0.00001151     0.00046537
H         8.46312373     7.10456034     8.41661241     0.00002939    -0.00026006     0.00004970
H         8.78228938     7.74080436     6.77832695     0.00021873    -0.00004130    -0.00039532
     6
  Step:    25            Position(A)                                  Velocity(au)
C         6.76310436     7.58844358     7.49157373    -0.00068032     0.00006230    -0.00006197
N         8.12184723     7.40801419     7.48298315     0.00058391    -0.00004825     0.00004541
H         6.18537509     7.98037932     6.64947655    -0.00018040     0.00019705     0.00000663
H         6.33934219     7.19126745     8.41303214    -0.00011816    -0.00000183     0.00048040
H         8.46324934     7.10386253     8.41672329     0.00006267    -0.00025044     0.00003156
H         8.78290492     7.74072789     6.77721408     0.00023134    -0.00001496    -0.00041826
     6
  Step:    26            Position(A)                                  Velocity(au)
C         6.76119906     7.58861750     7.49140397    -0.00071257     0.00006479    -0.00006209
N         8.12348170     7.40787346     7.48311104     0.00061097    -0.00005456     0.00004809
H         6.18488917     7.98093556     6.64948273    -0.00017541     0.00020987    -0.00000254
H         6.33895970     7.19127604     8.41436520    -0.00016105     0.00000837     0.00049363
H         8.46346647     7.10319062     8.41678505     0.00009632    -0.00024114     0.00001383
H         8.78355462     7.74072251     6.77603939     0.00024367     0.00001067    -0.00044048
     6
  Step:    27            Position(A)                                  Velocity(au)
C         6.75920718     7.58879795     7.49123416    -0.00074363     0.00006706    -0.00006201
N         8.12518879     7.40771577     7.48324618     0.00063701    -0.00006066     0.00005071
H         6.18441574     7.98152717     6.64946267    -0.00017128     0.00022293    -0.00001258
H         6.33846137     7.19131324     8.41573190    -0.00020285     0.00001911     0.00050498
H         8.46377616     7.10254369     8.41679892     0.00013038    -0.00023218    -0.00000339
H         8.78423762     7.74078626     6.77480499     0.00025565     0.00003557    -0.00046188
     6
  Step:    28            Position(A)                                  Velocity(au)
C         6.75713199     7.58898429     7.49106485    -0.00077349     0.00006910    -0.00006172
N         8.12696566     7.40754170     7.48338837     0.00066200    -0.00006653     0.00005323
H         6.18395239     7.98215482     6.64941392    -0.00016804     0.00023625    -0.00002353
H         6.33785026     7.19138057     8.41712707    -0.00024351     0.00003042     0.00051443
H         8.46417952     7.10192077     8.41676649     0.00016484    -0.00022360    -0.00001998
H         8.78495283     7.74091707     6.77351324     0.00026719     0.00005971    -0.00048237
     6
  Step:    29            Position(A)                                  Velocity(au)
C         6.75497680     7.58917589     7.49089661    -0.00080212     0.00007091    -0.00006122
N         8.12880941     7.40735188     7.48353733     0.00068592    -0.00007218     0.00005566
H         6.18349667     7.98281925     6.64933399    -0.00016571     0.00024984    -0.00003540
H         6.33712954     7.19147960     8.41854546    -0.00028301     0.00004230     0.00052196
H         8.46467771     7.10132079     8.41668965     0.00019973    -0.00021541    -0.00003582
H         8.78569896     7.74111280     6.77216680     0.00027823     0.00008304    -0.00050184
     6
  Step:    30            Position(A)                                  Velocity(au)
C         6.75274499     7.58937210     7.49073004    -0.00082952     0.00007247    -0.00006050
N         8.13071712     7.40714693     7.48369278     0.00070877    -0.00007760     0.00005797
H         6.18304607     7.98352123     6.64922034    -0.00016430     0.00026372    -0.00004820
H         6.33630242     7.19161190     8.41998177    -0.00032133     0.00005476     0.00052754
H         8.46527192     7.10074262     8.41657060     0.00023507    -0.00020766    -0.00005080
H         8.78647454     7.74137122     6.77076857     0.00028869     0.00010554    -0.00052020
     6
  Step:    31            Position(A)                                  Velocity(au)
C         6.75043997     7.58957227     7.49056570    -0.00085567     0.00007380    -0.00005958
N         8.13268585     7.40692748     7.48385436     0.00073055    -0.00008278     0.00006014
H         6.18259809     7.98426161     6.64907038    -0.00016380     0.00027792    -0.00006194
H         6.33537212     7.19177909     8.42143072    -0.00035847     0.00006781     0.00053121
H         8.46596336     7.10018507     8.41641181     0.00027086    -0.00020035    -0.00006483
H         8.78727787     7.74169003     6.76932170     0.00029850     0.00012719    -0.00053737
     6
  Step:    32            Position(A)                                  Velocity(au)
C         6.74806516     7.58977571     7.49040420    -0.00088056     0.00007488    -0.00005844
N         8.13471266     7.40669420     7.48402171     0.00075125    -0.00008772     0.00006217
H         6.18215020     7.98504123     6.64888156    -0.00016422     0.00029243    -0.00007662
H         6.33434186     7.19198278     8.42288707    -0.00039446     0.00008145     0.00053298
H         8.46675329     7.09964688     8.41621602     0.00030710    -0.00019350    -0.00007782
H         8.78810711     7.74206685     6.76782959     0.00030761     0.00014796    -0.00055325
     6
  Step:    33            Position(A)                                  Velocity(au)
C         6.74562399     7.58998179     7.49024611    -0.00090420     0.00007572    -0.00005708
N         8.13679462     7.40644773     7.48419439     0.00077089    -0.00009241     0.00006404
H         6.18169991     7.98586098     6.64865134    -0.00016556     0.00030727    -0.00009222
H         6.33321472     7.19222456     8.42434569    -0.00042934     0.00009567     0.00053289
H         8.46764295     7.09912676     8.41598621     0.00034380    -0.00018714    -0.00008967
H         8.78896024     7.74249926     6.76629583     0.00031595     0.00016783    -0.00056778
     6
  Step:    34            Position(A)                                  Velocity(au)
C         6.74311989     7.59018983     7.49009200    -0.00092659     0.00007631    -0.00005552
N         8.13892882     7.40618876     7.48437194     0.00078946    -0.00009687     0.00006573
H         6.18124474     7.98672174     6.64837721    -0.00016778     0.00032243    -0.00010871
H         6.33199371     7.19250600     8.42580157    -0.00046315     0.00011045     0.00053100
H         8.46863362     7.09862338     8.41572558     0.00038097    -0.00018127    -0.00010032
H         8.78983509     7.74298475     6.76472425     0.00032347     0.00018678    -0.00058089
     6
  Step:    35            Position(A)                                  Velocity(au)
C         6.74055626     7.59039917     7.48994245    -0.00094774     0.00007667    -0.00005376
N         8.14111238     7.40591794     7.48455388     0.00080700    -0.00010108     0.00006724
H         6.18078228     7.98762440     6.64805677    -0.00017087     0.00033790    -0.00012607
H         6.33068163     7.19282862     8.42724987    -0.00049597     0.00012577     0.00052739
H         8.46972655     7.09813536     8.41543752     0.00041859    -0.00017591    -0.00010970
H         8.79072936     7.74352080     6.76311884     0.00033013     0.00020480    -0.00059249
     6
  Step:    36            Position(A)                                  Velocity(au)
C         6.73793648     7.59060918     7.48979800    -0.00096766     0.00007680    -0.00005179
N         8.14334248     7.40563595     7.48473967     0.00082351    -0.00010504     0.00006854
H         6.18031019     7.98856981     6.64768771    -0.00017481     0.00035369    -0.00014425
H         6.32928112     7.19319389     8.42868596    -0.00052787     0.00014163     0.00052212
H         8.47092299     7.09766131     8.41512559     0.00045666    -0.00017106    -0.00011776
H         8.79164064     7.74410484     6.76148377     0.00033589     0.00022187    -0.00060255
     6
  Step:    37            Position(A)                                  Velocity(au)
C         6.73526390     7.59081921     7.48965918    -0.00098637     0.00007670    -0.00004964
N         8.14561632     7.40534346     7.48492876     0.00083901    -0.00010876     0.00006964
H         6.17982621     7.98955881     6.64726785    -0.00017955     0.00036977    -0.00016320
H         6.32779458     7.19360322     8.43010545    -0.00055894     0.00015798     0.00051529
H         8.47222414     7.09719982     8.41479348     0.00049517    -0.00016672    -0.00012445
H         8.79256641     7.74473428     6.75982335     0.00034071     0.00023799    -0.00061101
     6
  Step:    38            Position(A)                                  Velocity(au)
C         6.73254178     7.59102865     7.48952650    -0.00100390     0.00007637    -0.00004731
N         8.14793121     7.40504113     7.48512057     0.00085353    -0.00011223     0.00007053
H         6.17932821     7.99059218     6.64679516    -0.00018504     0.00038613    -0.00018285
H         6.32622417     7.19405794     8.43150418    -0.00058925     0.00017481     0.00050699
H         8.47363120     7.09674948     8.41444496     0.00053411    -0.00016290    -0.00012974
H         8.79350407     7.74540648     6.75814203     0.00034458     0.00025316    -0.00061782
     6
  Step:    39            Position(A)                                  Velocity(au)
C         6.72977336     7.59123690     7.48940044    -0.00102025     0.00007583    -0.00004481
N         8.15028448     7.40472964     7.48531448     0.00086710    -0.00011547     0.00007118
H         6.17881417     7.99167065     6.64626779    -0.00019125     0.00040274    -0.00020315
H         6.32457181     7.19455931     8.43287828    -0.00061891     0.00019208     0.00049732
H         8.47514529     7.09630888     8.41408392     0.00057344    -0.00015959    -0.00013361
H         8.79445098     7.74611884     6.75644434     0.00034746     0.00026736    -0.00062296
     6
  Step:    40            Position(A)                                  Velocity(au)
C         6.72696180     7.59144338     7.48928145    -0.00050717     0.00003677    -0.00002064
N         8.15267357     7.40440963     7.48550989     0.00043089    -0.00005802     0.00003508
H         6.17828221     7.99279487     6.64568409    -0.00009704     0.00020551    -0.00010972
H         6.32283919     7.19510848     8.43422415    -0.00031739     0.00010274     0.00023824
H         8.47676749     7.09587663     8.41371423     0.00030032    -0.00007679    -0.00006664
H         8.79540443     7.74686872     6.75473490     0.00017111     0.00013744    -0.00030681
     6
  Step:    41            Position(A)                                  Velocity(au)
C         6.72555485     7.59154279     7.48922875    -0.00052155     0.00003588    -0.00001787
N         8.15386856     7.40424702     7.48560623     0.00044286    -0.00006084     0.00003533
H         6.17800702     7.99338001     6.64535518    -0.00010435     0.00022248    -0.00013093
H         6.32193185     7.19541388     8.43485986    -0.00034610     0.00012070     0.00022644
H         8.47764332     7.09567012     8.41352964     0.00034030    -0.00007436    -0.00006803
H         8.79587427     7.74726201     6.75389236     0.00017226     0.00014997    -0.00030897
     6
  Step:    42            Position(A)                                  Velocity(au)
C         6.72410932     7.59163961     7.48918372    -0.00053539     0.00003489    -0.00001504
N         8.15509567     7.40407685     7.48570312     0.00045438    -0.00006355     0.00003547
H         6.17771147     7.99401166     6.64496800    -0.00011190     0.00023951    -0.00015228
H         6.32094632     7.19576864     8.43546258    -0.00037458     0.00013882     0.00021414
H         8.47862869     7.09546996     8.41334218     0.00038042    -0.00007215    -0.00006875
H         8.79634659     7.74768893     6.75304505     0.00017292     0.00016204    -0.00031030
     6
  Step:    43            Position(A)                                  Velocity(au)
C         6.72262669     7.59173360     7.48914650    -0.00054868     0.00003381    -0.00001216
N         8.15635369     7.40389943     7.48580023     0.00046547    -0.00006615     0.00003550
H         6.17739499     7.99468992     6.64452231    -0.00011963     0.00025654    -0.00017368
H         6.31988316     7.19617314     8.43603104    -0.00040287     0.00015707     0.00020142
H         8.47972392     7.09527553     8.41315365     0.00042063    -0.00007015    -0.00006883
H         8.79682003     7.74814822     6.75219528     0.00017309     0.00017365    -0.00031078
     6
  Step:    44            Position(A)                                  Velocity(au)
C         6.72110846     7.59182455     7.48911719    -0.00056143     0.00003266    -0.00000926
N         8.15764142     7.40371506     7.48589728     0.00047611    -0.00006864     0.00003542
H         6.17705720     7.99541475     6.64401811    -0.00012746     0.00027354    -0.00019503
H         6.31874290     7.19662771     8.43656418    -0.00043099     0.00017542     0.00018835
H         8.48092923     7.09508628     8.41296575     0.00046091    -0.00006835    -0.00006831
H         8.79729326     7.74863864     6.75134534     0.00017277     0.00018480    -0.00031042
     6