
 Primary working directories    : int
 Secondary working directories  : int
 Wavefunction directory         : /home/islee/unixmd-develop/39-unixmd-new_code_structure-change_mqc_structure/examples/molpro_casscf/TRAJ.sh/unixmd/scr_qm/wfu/
 Main file repository           : /home/islee/unixmd-develop/39-unixmd-new_code_structure-change_mqc_structure/examples/molpro_casscf/TRAJ.sh/unixmd/scr_qm/int/

 SHA1      : e0c7f9aab6313248a7a7ade58897d3f3adec42d9
 NAME      : 2015.1.15
 ARCHNAME  : linux/x86_64
 FC        : /opt/intel/composer_xe_2015.1.133/bin/intel64/ifort
 BLASLIB   : -Wl,-_start-group /opt/intel/mkl/lib/intel64/libmkl_intel_ilp64.a /opt/intel/mkl/lib/intel64/libmkl_intel_thread.a /opt/intel/mkl/lib/intel64/libmkl_core.a -Wl,-_end-group
 id        : csmmolpro

 Nodes     nprocs
 thor         1

 Using customized tuning parameters: mindgm=1; mindgv=20; mindgc=4; mindgr=1; noblas=0; minvec=7
 default implementation of scratch files=df  

 file,1,int.int,delete
 file,2,wf.wfu,unknown
 restart,2
 
 geometry={angstrom
 Including file /home/islee/unixmd-develop/39-unixmd-new_code_structure-change_mqc_structure/examples/molpro_casscf/TRAJ.sh/unixmd/scr_qm/geometry.xyz
 >6
 >C       -0.70880781    -0.00308001    -0.05440172
 >C        0.67396853     0.00021983    -0.03893644
 >H       -1.24660852     0.90589944     0.01826763
 >H       -1.29616283    -0.91142039    -0.03339632
 >H        1.19194857     0.96727906    -0.12325162
 >H        1.20848803    -0.89767594    -0.05062032
 }
 
 symmetry nosym
 basis=6-31G
 
 {mcscf,maxit=20,energy=1e-08,gradient=1e-06,step=0.01
 frozen,0
 closed,7
 occ,9
 start,2140.2
 orbital,2140.2
 wf,16,1,0
 state,2
 cpmcscf,grad,1.1,spin=0,accu=1e-07,record=5100.3
 cpmcscf,nacm,1.1,2.1,spin=0,accu=1e-07,record=5102.3
 }
 en(1) = ENERGY(1)
 en(2) = ENERGY(2)
 
 
 {force
 samc,5100.3
 }
 
 {force
 samc,5102.3
 }
 

 Variables initialized (889), CPU time= 0.01 sec
 Commands  initialized (702), CPU time= 0.01 sec, 572 directives.
 Default parameters read. Elapsed time= 0.07 sec

 Checking input...
 Passed
1


                                         ***  PROGRAM SYSTEM MOLPRO  ***
                                       Copyright, TTI GmbH Stuttgart, 2015
                                    Version 2015.1 linked Jan  2 2017 18:18:08


 **********************************************************************************************************************************
 LABEL *                                                                                 
  64 bit serial version                                                                  DATE: 22-Oct-19          TIME: 08:49:16  
 **********************************************************************************************************************************

 SHA1:             e0c7f9aab6313248a7a7ade58897d3f3adec42d9
 **********************************************************************************************************************************

 Variable memory set to  500000000 words,  buffer space   230000 words



 Temporary file  1  int.int  assigned.  Implementation=df  
 Permanent file  2  wf.wfu   assigned.  Implementation=df  

 PROGRAM * RESTART 



 **********************************************************************************************************************************
 DATASETS  * FILE   NREC   LENGTH (MB)   RECORD NAMES
              2       1        0.03       500   
                                          VAR  

 PROGRAMS   *        TOTAL   RESTART
 CPU TIMES  *         0.15      0.00
 REAL TIME  *         0.16 SEC
 DISK USED  *         0.03 MB      
 **********************************************************************************************************************************

Geometry recognized as XYZ

 SETTING BASIS          =    6-31G


 Recomputing integrals since basis changed


 Using spherical harmonics

 Library entry C      S 6-31G                selected for orbital group  1
 Library entry C      P 6-31G                selected for orbital group  1
 Library entry H      S 6-31G                selected for orbital group  2


 PROGRAM * SEWARD (Integral evaluation for generally contracted gaussian basis sets)     Author: Roland Lindh, 1990

 Geometry written to block  1 of record 700


 Point group  C1  



 ATOMIC COORDINATES

 NR  ATOM    CHARGE       X              Y              Z

   1  C       6.00   -1.339452636   -0.005820375   -0.102804352
   2  C       6.00    1.273615938    0.000415418   -0.073579208
   3  H       1.00   -2.355748687    1.711901838    0.034520818
   4  H       1.00   -2.449392762   -1.722334921   -0.063109898
   5  H       1.00    2.252456352    1.827892509   -0.232911806
   6  H       1.00    2.283711402   -1.696361675   -0.095658541

 Bond lengths in Bohr (Angstrom)

 1-2  2.613239439  1-3  2.000571286  1-4  2.044496251  2-5  2.079227729  2-6  1.974799445
     ( 1.382866758)     ( 1.058656733)     ( 1.081900824)     ( 1.100279931)     ( 1.045018862)

 Bond angles

  1-2-5  118.16294323   1-2-6  120.61614342   2-1-3  120.34152123   2-1-4  123.00023945

  3-1-4  116.34351113   5-2-6  120.89920320

 NUCLEAR CHARGE:                   16
 NUMBER OF PRIMITIVE AOS:          60
 NUMBER OF SYMMETRY AOS:           60
 NUMBER OF CONTRACTIONS:           26   (  26A   )
 NUMBER OF CORE ORBITALS:           2   (   2A   )
 NUMBER OF VALENCE ORBITALS:       12   (  12A   )


 NUCLEAR REPULSION ENERGY   32.92447341

 Eigenvalues of metric

         1 0.111E-01 0.179E-01 0.392E-01 0.492E-01 0.706E-01 0.249E+00 0.258E+00 0.289E+00


 Contracted 2-electron integrals neglected if value below      1.0D-11
 AO integral compression algorithm  1   Integral accuracy      1.0D-11

     0.524 MB (compressed) written to integral file ( 84.0%)


 NUMBER OF SORTED TWO-ELECTRON INTEGRALS:      61776.     BUFFER LENGTH:  32768
 NUMBER OF SEGMENTS:   1  SEGMENT LENGTH:      61776      RECORD LENGTH: 524288

 Memory used in sort:       0.62 MW

 SORT1 READ       85775. AND WROTE       60126. INTEGRALS IN      1 RECORDS. CPU TIME:     0.00 SEC, REAL TIME:     0.01 SEC
 SORT2 READ       60126. AND WROTE       61776. INTEGRALS IN      2 RECORDS. CPU TIME:     0.01 SEC, REAL TIME:     0.01 SEC

 FILE SIZES:   FILE 1:    19.7 MBYTE,  FILE 4:     4.2 MBYTE,   TOTAL:     23.9 MBYTE

 OPERATOR DM      FOR CENTER  0  COORDINATES:    0.000000    0.000000    0.000000


 **********************************************************************************************************************************
 DATASETS  * FILE   NREC   LENGTH (MB)   RECORD NAMES
              1      19       19.49       500      610      700      900      950      970     1000      129      960     1100   
                                          VAR    BASINP    GEOM    SYMINP    ZMAT    AOBASIS   BASIS     P2S    ABASIS      S 
                                         1400     1410     1200     1210     1080     1600     1650     1300     1700   
                                           T        V       H0       H01     AOSYM     SMH    MOLCAS    ERIS     OPER   

              2       5        1.48       500      610      700     1000      520   
                                          VAR    BASINP    GEOM     BASIS   MCVARS    

 PROGRAMS   *        TOTAL       INT   RESTART
 CPU TIMES  *         0.40      0.24      0.00
 REAL TIME  *         0.65 SEC
 DISK USED  *        25.45 MB      
 **********************************************************************************************************************************


 PROGRAM * MULTI (Direct Multiconfiguration SCF)       Authors: P.J. Knowles, H.-J. Werner (1984)     S.T. Elbert (1988)


 Number of closed-shell orbitals:   7 (   7 )
 Number of active  orbitals:        2 (   2 )
 Number of external orbitals:      17 (  17 )

 State symmetry 1

 Number of electrons:     2    Spin symmetry=Singlet   Space symmetry=1
 Number of states:        2
 Number of CSFs:          3   (4 determinants, 4 intermediate states)

 Orbital guess generated from atomic densities. Full valence occupancy:    8

 Wavefunction dump at record             2140.2

 Convergence thresholds  0.10E-05 (gradient)  0.10E-07 (energy)  0.10E-01 (step length)

 Weight factors for state symmetry  1:    0.50000   0.50000

 Number of orbital rotations:      167   (    14 Core/Active    119 Core/Virtual   0 Active/Active     34 Active/Virtual)
 Total number of variables:        175


 ITER. MIC  NCI  NEG     ENERGY(VAR)     ENERGY(PROJ)   ENERGY CHANGE     GRAD(0)  GRAD(ORB)   GRAD(CI)     STEP       TIME

   1   24    7    0     -77.81422266     -77.83489427   -0.02067161    0.19842058 0.00001721 0.00000000  0.14D+00      0.07
   2   20   13    0     -77.83521602     -77.83523997   -0.00002395    0.00681236 0.00000204 0.00000000  0.66D-02      0.09
   3   26   13    0     -77.83524000     -77.83524000   -0.00000000    0.00001384 0.00000000 0.00000000  0.44D-04      0.12
   4   15   10    0     -77.83524000     -77.83524000   -0.00000000    0.00000013 0.00000004 0.00000000  0.16D-06      0.14

 ** WVFN ****  CONVERGENCE REACHED, FINAL GRADIENT:  0.36D-07

 Solving MCSCF z-vector equations for state  1.1, requested accuracy=      0.10D-06
 Convergence reached in  17 iterations ( 17 expansion vectors), accuracy=  0.28D-07

 SA-Gradient information saved on record      5100.3

 SOLVING CP-MCSCF NACM: 2.1 - 1.1
 Convergence reached in  19 iterations ( 19 expansion vectors), accuracy=  0.35D-07

 SA-Gradient information saved on record      5102.3



 Results for state 1.1
 =====================

 !MCSCF STATE 1.1 Energy              -78.021158552870
 Nuclear energy                        32.92447341
 Kinetic energy                        77.98862403
 One electron energy                 -169.11415054
 Two electron energy                   58.16851858
 Virial ratio                           2.00041717

 !MCSCF STATE 1.1 Dipole moment        -0.01039673    -0.00155919    -0.00110515
 Dipole moment /Debye                  -0.02642413    -0.00396282    -0.00280883

 Results for state 2.1
 =====================

 !MCSCF STATE 2.1 Energy              -77.649321456038
 Nuclear energy                        32.92447341
 Kinetic energy                        78.12256098
 One electron energy                 -168.57444159
 Two electron energy                   58.00064672
 Virial ratio                           1.99394235

 !MCSCF STATE 2.1 Dipole moment        -0.02841763    -0.01228048     0.00084801
 Dipole moment /Debye                  -0.07222569    -0.03121183     0.00215528

 State-averaged charge density matrix saved on record  2140.2 (density set 1)

 !MCSCF expec         <1.1|DMX|1.1>    -0.010396731593 au =    -0.026424125081 Debye
 !MCSCF trans         <2.1|DMX|1.1>    -1.525377626778 au =    -3.876869268667 Debye
 !MCSCF expec         <2.1|DMX|2.1>    -0.028417634879 au =    -0.072225692457 Debye

 !MCSCF expec         <1.1|DMY|1.1>    -0.001559194393 au =    -0.003962817285 Debye
 !MCSCF trans         <2.1|DMY|1.1>    -0.003234066422 au =    -0.008219638537 Debye
 !MCSCF expec         <2.1|DMY|2.1>    -0.012280483786 au =    -0.031211831982 Debye

 !MCSCF expec         <1.1|DMZ|1.1>    -0.001105151042 au =    -0.002808829785 Debye
 !MCSCF trans         <2.1|DMZ|1.1>    -0.074185660988 au =    -0.188548792254 Debye
 !MCSCF expec         <2.1|DMZ|2.1>     0.000848007113 au =     0.002155277919 Debye


 Natural orbital dump (state averaged) at molpro section  2140.2    (Orbital set 2)



 **********************************************************************************************************************************
 DATASETS  * FILE   NREC   LENGTH (MB)   RECORD NAMES
              1      20       19.88       500      610      700      900      950      970     1000      129      960     1100   
                                          VAR    BASINP    GEOM    SYMINP    ZMAT    AOBASIS   BASIS     P2S    ABASIS      S 
                                         1400     1410     1200     1210     1080     1600     1650     1300     1700     1380   
                                           T        V       H0       H01     AOSYM     SMH    MOLCAS    ERIS     OPER     JKOP   

              2       6        4.02       500      610      700     1000      520     2140   
                                          VAR    BASINP    GEOM     BASIS   MCVARS    MCSCF   

              3       3        0.05      1000     5100     5102   
                                         BASIS   CPSAMC   CPSAMC    

 PROGRAMS   *        TOTAL     MCSCF       INT   RESTART
 CPU TIMES  *         0.57      0.16      0.24      0.00
 REAL TIME  *         0.89 SEC
 DISK USED  *        28.84 MB      
 **********************************************************************************************************************************
 SETTING EN(1)          =       -78.02115855  HARTREE                         
 SETTING EN(2)          =       -77.64932146  HARTREE                         


 PROGRAM * FORCE (Gradient of the energy)

 SA-MCSCF information from    5100.3
 Orbitals from record         2140.2

 Number of closed-shell orbitals:  7 (  7 )
 Number of active orbitals:        2 (  2 )
 Number of occupied orbitals:      9 (  9 )

 Number of electrons= 16     Singlet     Space symmetry=1      Wavefunction type: SA-MCSCF


 End of calculation of the energy gradient  ,IREST=   0


 SA-MC GRADIENT FOR STATE 1.1

 Atom          dE/dx               dE/dy               dE/dz

   1        -0.027134160         0.013340224        -0.011134989
   2         0.039353940        -0.033711518         0.012237202
   3         0.005748860        -0.010158621         0.013792806
   4        -0.007451110        -0.004883369        -0.007717020
   5         0.004154858         0.020113890        -0.015388033
   6        -0.014672389         0.015299394         0.008210035

 Nuclear force contribution to virial =         0.072773173


 **********************************************************************************************************************************
 DATASETS  * FILE   NREC   LENGTH (MB)   RECORD NAMES
              1      20       19.88       500      610      700      900      950      970     1000      129      960     1100   
                                          VAR    BASINP    GEOM    SYMINP    ZMAT    AOBASIS   BASIS     P2S    ABASIS      S 
                                         1400     1410     1200     1210     1080     1600     1650     1300     1700     1380   
                                           T        V       H0       H01     AOSYM     SMH    MOLCAS    ERIS     OPER     JKOP   

              2       6        4.02       500      610      700     1000      520     2140   
                                          VAR    BASINP    GEOM     BASIS   MCVARS    MCSCF   

              3       3        0.05      1000     5100     5102   
                                         BASIS   CPSAMC   CPSAMC    

 PROGRAMS   *        TOTAL     FORCE     MCSCF       INT   RESTART
 CPU TIMES  *         0.72      0.15      0.16      0.24      0.00
 REAL TIME  *         1.04 SEC
 DISK USED  *        28.84 MB      
 **********************************************************************************************************************************


 PROGRAM * FORCE (Gradient of the energy)

 SA-MCSCF information from    5102.3
 Orbitals from record         2140.2

 Number of closed-shell orbitals:  7 (  7 )
 Number of active orbitals:        2 (  2 )
 Number of occupied orbitals:      9 (  9 )

 Number of electrons= 16     Singlet     Space symmetry=1      Wavefunction type: SA-MCSCF


 End of calculation of the energy gradient  ,IREST=   0


 SA-MC NACME FOR STATES 1.1 - 2.1

 Atom          dE/dx               dE/dy               dE/dz

   1        -0.244488228        -0.000098343        -0.026543633
   2        -0.261386581         0.001814620        -0.028200734
   3         0.013437460        -0.005536368        -0.021464434
   4         0.017080441         0.003513179         0.039788555
   5         0.013372365         0.004672994        -0.019443563
   6         0.016054530        -0.005243150         0.039445932



 **********************************************************************************************************************************
 DATASETS  * FILE   NREC   LENGTH (MB)   RECORD NAMES
              1      20       19.88       500      610      700      900      950      970     1000      129      960     1100   
                                          VAR    BASINP    GEOM    SYMINP    ZMAT    AOBASIS   BASIS     P2S    ABASIS      S 
                                         1400     1410     1200     1210     1080     1600     1650     1300     1700     1380   
                                           T        V       H0       H01     AOSYM     SMH    MOLCAS    ERIS     OPER     JKOP   

              2       6        4.02       500      610      700     1000      520     2140   
                                          VAR    BASINP    GEOM     BASIS   MCVARS    MCSCF   

              3       3        0.05      1000     5100     5102   
                                         BASIS   CPSAMC   CPSAMC    

 PROGRAMS   *        TOTAL     FORCE     FORCE     MCSCF       INT   RESTART
 CPU TIMES  *         0.87      0.14      0.15      0.16      0.24      0.00
 REAL TIME  *         1.21 SEC
 DISK USED  *        28.84 MB      
 **********************************************************************************************************************************

 MCSCF/6-31G energy=    -77.649321456038
 **********************************************************************************************************************************
 Molpro calculation terminated
 Variable memory released
