|===============================================================================
|
|  DFTB+ release 19.1
|
|  Copyright (C) 2006 - 2019  DFTB+ developers group
|
|===============================================================================
|
|  When publishing results obtained with DFTB+, please cite the following
|  reference:
|
|  * B. Aradi, B. Hourahine and T. Frauenheim,
|    DFTB+, a Sparse Matrix-Based Implementation of the DFTB Method,
|    J. Phys. Chem. A, 111 5678 (2007).  [doi: 10.1021/jp070186p]
|
|  You should also cite additional publications crediting the parametrization
|  data you use. Please consult the documentation of the SK-files for the
|  references.
|
|===============================================================================

Reading input file 'dftb_in.hsd'
Parser version: 7

--------------------------------------------------------------------------------
Reading SK-files:
Done.


Processed input in HSD format written to 'dftb_pin.hsd'

Starting initialization...
--------------------------------------------------------------------------------
OpenMP threads:              1
Chosen random seed:          1427225017
Mode:                        Static calculation
Self consistent charges:     Yes
SCC-tolerance:                 0.100000E-05
Max. scc iterations:                  10000
Shell resolved Hubbard:      No
On-site corrections:              Yes
Spin polarisation:           No
Nr. of up electrons:             6.000000
Nr. of down electrons:           6.000000
Periodic boundaries:         No
Electronic solver:           Relatively robust
Maximal SCC-cycles:                   10000
Electronic temperature:        0.100000E-07 H      0.272114E-06 eV
Initial charges:             Set automatically (system chrg:   0.000E+00)
Included shells:             C:  s, p
                             H:  s
Spin coupling constants:     C   1(s)-1(s):  -0.310000E-01
                             C   1(s)-2(p):  -0.250000E-01
                             C   2(p)-1(s):  -0.250000E-01
                             C   2(p)-2(p):  -0.230000E-01
                             H   1(s)-1(s):  -0.720000E-01
Extra options:
                             Mulliken analysis
                             Force calculation
Force type                   original
                             Eigenvector printing
On-site coupling constants:   Cuu:  1(s)-1(s):   0.000000E+00
                              Cuu:  1(s)-2(p):   0.497300E-01
                              Cuu:  2(p)-1(s):   0.497300E-01
                              Cuu:  2(p)-2(p):  -0.120300E-01
                              Cud:  1(s)-1(s):   0.000000E+00
                              Cud:  1(s)-2(p):   0.105120E+00
                              Cud:  2(p)-1(s):   0.105120E+00
                              Cud:  2(p)-2(p):   0.264300E-01
                              Huu:  1(s)-1(s):   0.000000E+00
                              Hud:  1(s)-1(s):   0.000000E+00
 
 
REKS Calcuation:             Yes
SSR(2,2) Calcuation:         Yes
Energy Functional:           (PPS+OSS)/2
Number of States:                         2
State-Averaging Weight:          0.500000
                                 0.500000
State of Interest:                        2
Newton-Raphson for FON opt:  Yes
NR max. Iterations:                      50
Level Shifting:              Yes
Shift Value:                     1.000000
W scale factor:              C  =    1.000000
                             H  =    1.000000
Gradient of Microstate:      No
CP-REKS Solver:              Preconditioned Conjugate-Gradient
CG max. Iterations:                     100
CG Tolerance:                  0.100000E-07
Non-Adiabatic Coupling:      Yes
 
 Warning! REKS calculation is not affected by,
          (mixer, filling) option.
 

--------------------------------------------------------------------------------

***  Geometry step: 0

 
 number of core 5
 number of active 2
 nEl 12.0000000000000
 nAOs 12
 super_N 46
 sparse elements 90
 
  iSCC       reks energy        Diff energy         x_a        Time(s)         SCC error   
    1       -5.7756166185       0.0000000000     0.999860     0.005059       1.1614245254
    2       -5.7771869003      -0.0015702817     0.999877     0.001505       0.0152369126
    3       -5.7783067197      -0.0011198194     0.999893     0.001486       0.0098787401
    4       -5.7792352978      -0.0009285781     0.999908     0.001470       0.0064625963
    5       -5.7800817156      -0.0008464178     0.999922     0.001486       0.0046461758
    6       -5.7808912504      -0.0008095348     0.999935     0.001467       0.0048390757
    7       -5.7816816664      -0.0007904160     0.999947     0.001470       0.0050042983
    8       -5.7824586899      -0.0007770235     0.999957     0.001467       0.0051401906
    9       -5.7832227377      -0.0007640478     0.999965     0.001467       0.0052552812
   10       -5.7839719215      -0.0007491837     0.999973     0.001449       0.0053355577
   11       -5.7847034400      -0.0007315186     0.999979     0.001465       0.0053812509
   12       -5.7854142569      -0.0007108168     0.999983     0.001452       0.0053931176
   13       -5.7861014482      -0.0006871913     0.999987     0.001459       0.0053724764
   14       -5.7867623907      -0.0006609425     0.999990     0.001472       0.0053211888
   15       -5.7873948641      -0.0006324733     0.999993     0.001444       0.0052415998
   16       -5.7879971024      -0.0006022384     0.999995     0.001443       0.0051364503
   17       -5.7885678127      -0.0005707103     0.999996     0.001450       0.0050087727
   18       -5.7891061691      -0.0005383563     0.999997     0.001458       0.0048617806
   19       -5.7896117895      -0.0005056204     0.999998     0.001449       0.0046987591
   20       -5.7900847004      -0.0004729109     0.999998     0.001458       0.0045229649
   21       -5.7905252921      -0.0004405917     0.999999     0.001465       0.0043375383
   22       -5.7909342695      -0.0004089774     0.999999     0.001456       0.0041454329
   23       -5.7913126003      -0.0003783308     0.999999     0.001456       0.0039493611
   24       -5.7916614640      -0.0003488636     1.000000     0.001460       0.0037517582
   25       -5.7919822022      -0.0003207382     1.000000     0.001450       0.0035547614
   26       -5.7922762739      -0.0002940717     1.000000     0.001457       0.0033602033
   27       -5.7925452139      -0.0002689400     1.000000     0.001470       0.0031696172
   28       -5.7927905974      -0.0002453835     1.000000     0.001456       0.0029842505
   29       -5.7930140092      -0.0002234119     1.000000     0.001452       0.0028050855
   30       -5.7932170187      -0.0002030095     1.000000     0.001457       0.0026328636
   31       -5.7934011590      -0.0001841403     1.000000     0.001452       0.0024681129
   32       -5.7935679113      -0.0001667523     1.000000     0.001462       0.0023111756
   33       -5.7937186931      -0.0001507818     1.000000     0.001460       0.0021622352
   34       -5.7938548496      -0.0001361565     1.000000     0.001475       0.0020213428
   35       -5.7939776483      -0.0001227986     1.000000     0.001460       0.0018884406
   36       -5.7940882761      -0.0001106278     1.000000     0.001456       0.0017633840
   37       -5.7941878386      -0.0000995625     1.000000     0.001451       0.0016459604
   38       -5.7942773605      -0.0000895219     1.000000     0.001451       0.0015359058
   39       -5.7943577875      -0.0000804271     1.000000     0.001451       0.0014329193
   40       -5.7944299895      -0.0000722020     1.000000     0.001455       0.0013366750
   41       -5.7944947635      -0.0000647740     1.000000     0.001479       0.0012468317
   42       -5.7945528380      -0.0000580745     1.000000     0.001458       0.0011630410
   43       -5.7946048771      -0.0000520391     1.000000     0.001467       0.0010849540
   44       -5.7946514845      -0.0000466074     1.000000     0.001451       0.0010122261
   45       -5.7946932083      -0.0000417238     1.000000     0.001468       0.0009445208
   46       -5.7947305448      -0.0000373365     1.000000     0.001447       0.0008815129
   47       -5.7947639431      -0.0000333982     1.000000     0.001466       0.0008228904
   48       -5.7947938084      -0.0000298653     1.000000     0.001470       0.0007683556
   49       -5.7948205064      -0.0000266980     1.000000     0.001459       0.0007176264
   50       -5.7948443665      -0.0000238601     1.000000     0.001456       0.0006704366
   51       -5.7948656850      -0.0000213185     1.000000     0.001465       0.0006265355
   52       -5.7948847285      -0.0000190434     1.000000     0.001455       0.0005856885
   53       -5.7949017361      -0.0000170077     1.000000     0.001461       0.0005476761
   54       -5.7949169229      -0.0000151868     1.000000     0.001455       0.0005122935
   55       -5.7949304814      -0.0000135585     1.000000     0.001461       0.0004793503
   56       -5.7949425845      -0.0000121030     1.000000     0.001454       0.0004486693
   57       -5.7949533868      -0.0000108023     1.000000     0.001460       0.0004200862
   58       -5.7949630270      -0.0000096402     1.000000     0.001457       0.0003937679
   59       -5.7949716292      -0.0000086021     1.000000     0.001462       0.0003734469
   60       -5.7949793042      -0.0000076751     1.000000     0.001456       0.0003540580
   61       -5.7949861515      -0.0000068473     1.000000     0.001461       0.0003355738
   62       -5.7949922598      -0.0000061083     1.000000     0.001456       0.0003179656
   63       -5.7949977084      -0.0000054486     1.000000     0.001464       0.0003012034
   64       -5.7950025682      -0.0000048598     1.000000     0.001456       0.0002852566
   65       -5.7950069026      -0.0000043344     1.000000     0.001463       0.0002700945
   66       -5.7950107681      -0.0000038655     1.000000     0.001456       0.0002556860
   67       -5.7950142153      -0.0000034472     1.000000     0.001462       0.0002420004
   68       -5.7950172894      -0.0000030741     1.000000     0.001456       0.0002290072
   69       -5.7950200306      -0.0000027411     1.000000     0.001452       0.0002166764
   70       -5.7950224748      -0.0000024442     1.000000     0.001457       0.0002049788
   71       -5.7950246541      -0.0000021793     1.000000     0.001454       0.0001938856
   72       -5.7950265972      -0.0000019431     1.000000     0.001461       0.0001833690
   73       -5.7950283297      -0.0000017324     1.000000     0.001453       0.0001734019
   74       -5.7950298742      -0.0000015446     1.000000     0.001456       0.0001639583
   75       -5.7950312513      -0.0000013770     1.000000     0.001452       0.0001550129
   76       -5.7950324789      -0.0000012277     1.000000     0.001449       0.0001465415
   77       -5.7950335734      -0.0000010944     1.000000     0.001449       0.0001385205
   78       -5.7950345490      -0.0000009757     1.000000     0.001454       0.0001309276
   79       -5.7950354188      -0.0000008698     1.000000     0.001443       0.0001237412
   80       -5.7950361942      -0.0000007754     1.000000     0.001459       0.0001169409
   81       -5.7950368854      -0.0000006912     1.000000     0.001447       0.0001105067
   82       -5.7950375015      -0.0000006161     1.000000     0.001456       0.0001044200
   83       -5.7950380507      -0.0000005492     1.000000     0.001448       0.0000986628
   84       -5.7950385403      -0.0000004896     1.000000     0.001459       0.0000932179
   85       -5.7950389767      -0.0000004364     1.000000     0.001453       0.0000880689
   86       -5.7950393657      -0.0000003890     1.000000     0.001452       0.0000832004
   87       -5.7950397125      -0.0000003468     1.000000     0.001450       0.0000785975
   88       -5.7950400216      -0.0000003091     1.000000     0.001450       0.0000742462
   89       -5.7950402971      -0.0000002755     1.000000     0.001453       0.0000701330
   90       -5.7950405427      -0.0000002456     1.000000     0.001455       0.0000662453
   91       -5.7950407616      -0.0000002189     1.000000     0.001462       0.0000625709
   92       -5.7950409567      -0.0000001951     1.000000     0.001454       0.0000590985
   93       -5.7950411306      -0.0000001739     1.000000     0.001458       0.0000558171
   94       -5.7950412856      -0.0000001550     1.000000     0.001451       0.0000527165
   95       -5.7950414238      -0.0000001382     1.000000     0.001458       0.0000497867
   96       -5.7950415469      -0.0000001232     1.000000     0.001447       0.0000470187
   97       -5.7950416567      -0.0000001098     1.000000     0.001452       0.0000444035
   98       -5.7950417546      -0.0000000978     1.000000     0.001452       0.0000419329
   99       -5.7950418418      -0.0000000872     1.000000     0.001462       0.0000395990
  100       -5.7950419195      -0.0000000777     1.000000     0.001452       0.0000373942
  101       -5.7950419888      -0.0000000693     1.000000     0.001462       0.0000353116
  102       -5.7950420505      -0.0000000618     1.000000     0.001446       0.0000333445
  103       -5.7950421056      -0.0000000550     1.000000     0.001457       0.0000314864
  104       -5.7950421546      -0.0000000491     1.000000     0.001452       0.0000297314
  105       -5.7950421984      -0.0000000437     1.000000     0.001460       0.0000280739
  106       -5.7950422373      -0.0000000390     1.000000     0.001453       0.0000265085
  107       -5.7950422721      -0.0000000347     1.000000     0.001460       0.0000250300
  108       -5.7950423030      -0.0000000310     1.000000     0.001454       0.0000236337
  109       -5.7950423306      -0.0000000276     1.000000     0.001459       0.0000223151
  110       -5.7950423552      -0.0000000246     1.000000     0.001446       0.0000210699
  111       -5.7950423772      -0.0000000219     1.000000     0.001448       0.0000198939
  112       -5.7950423967      -0.0000000195     1.000000     0.001458       0.0000187834
  113       -5.7950424141      -0.0000000174     1.000000     0.001453       0.0000177348
  114       -5.7950424296      -0.0000000155     1.000000     0.001453       0.0000167446
  115       -5.7950424435      -0.0000000138     1.000000     0.001451       0.0000158096
  116       -5.7950424558      -0.0000000123     1.000000     0.001450       0.0000149266
  117       -5.7950424668      -0.0000000110     1.000000     0.001450       0.0000140929
  118       -5.7950424766      -0.0000000098     1.000000     0.001458       0.0000133057
  119       -5.7950424853      -0.0000000087     1.000000     0.001449       0.0000125624
  120       -5.7950424931      -0.0000000078     1.000000     0.001459       0.0000118606
  121       -5.7950425000      -0.0000000069     1.000000     0.001448       0.0000111979
  122       -5.7950425062      -0.0000000062     1.000000     0.001459       0.0000105722
  123       -5.7950425117      -0.0000000055     1.000000     0.001456       0.0000099814
  124       -5.7950425167      -0.0000000049     1.000000     0.001462       0.0000094236
  125       -5.7950425210      -0.0000000044     1.000000     0.001459       0.0000088969
  126       -5.7950425249      -0.0000000039     1.000000     0.001459       0.0000083996
  127       -5.7950425284      -0.0000000035     1.000000     0.001456       0.0000079301
  128       -5.7950425315      -0.0000000031     1.000000     0.001464       0.0000074868
  129       -5.7950425343      -0.0000000028     1.000000     0.001457       0.0000070683
  130       -5.7950425367      -0.0000000025     1.000000     0.001467       0.0000066732
  131       -5.7950425389      -0.0000000022     1.000000     0.001457       0.0000063001
  132       -5.7950425409      -0.0000000020     1.000000     0.001462       0.0000059479
  133       -5.7950425426      -0.0000000017     1.000000     0.001508       0.0000056154
  134       -5.7950425442      -0.0000000016     1.000000     0.001466       0.0000053014
  135       -5.7950425456      -0.0000000014     1.000000     0.001456       0.0000050050
  136       -5.7950425468      -0.0000000012     1.000000     0.001467       0.0000047251
  137       -5.7950425479      -0.0000000011     1.000000     0.001460       0.0000044609
  138       -5.7950425489      -0.0000000010     1.000000     0.001459       0.0000042115
  139       -5.7950425498      -0.0000000009     1.000000     0.001454       0.0000039760
  140       -5.7950425505      -0.0000000008     1.000000     0.001450       0.0000037536
  141       -5.7950425512      -0.0000000007     1.000000     0.001455       0.0000035437
  142       -5.7950425519      -0.0000000006     1.000000     0.001443       0.0000033456
  143       -5.7950425524      -0.0000000006     1.000000     0.001457       0.0000031585
  144       -5.7950425529      -0.0000000005     1.000000     0.001450       0.0000029818
  145       -5.7950425533      -0.0000000004     1.000000     0.001454       0.0000028151
  146       -5.7950425537      -0.0000000004     1.000000     0.001447       0.0000026577
  147       -5.7950425541      -0.0000000003     1.000000     0.001458       0.0000025090
  148       -5.7950425544      -0.0000000003     1.000000     0.001449       0.0000023687
  149       -5.7950425547      -0.0000000003     1.000000     0.001453       0.0000022362
  150       -5.7950425549      -0.0000000002     1.000000     0.001453       0.0000021112
  151       -5.7950425551      -0.0000000002     1.000000     0.001448       0.0000019931
  152       -5.7950425553      -0.0000000002     1.000000     0.001449       0.0000018816
  153       -5.7950425555      -0.0000000002     1.000000     0.001448       0.0000017764
  154       -5.7950425557      -0.0000000002     1.000000     0.001453       0.0000016770
  155       -5.7950425558      -0.0000000001     1.000000     0.001454       0.0000015832
  156       -5.7950425559      -0.0000000001     1.000000     0.001451       0.0000014947
  157       -5.7950425560      -0.0000000001     1.000000     0.001455       0.0000014111
  158       -5.7950425561      -0.0000000001     1.000000     0.001455       0.0000013322
  159       -5.7950425562      -0.0000000001     1.000000     0.001451       0.0000012577
  160       -5.7950425563      -0.0000000001     1.000000     0.001464       0.0000011873
  161       -5.7950425564      -0.0000000001     1.000000     0.001451       0.0000011209
  162       -5.7950425564      -0.0000000001     1.000000     0.001461       0.0000010582
  163       -5.7950425565      -0.0000000001     1.000000     0.001449       0.0000009990
  
--------------------------------------------------
 Final SA-REKS(2,2) energy:      -5.79504256
  
 State     Energy      FON(1)    FON(2)   Spin
  PPS   -5.92423228   2.000000  0.000000  0.00
  OSS   -5.66585283   1.000000  1.000000  0.00
 Trip   -5.68329554   1.000000  1.000000  1.00
--------------------------------------------------
  
 Lagrangian Wab:   0.00003266  0.00003265
  
--------------------------------------------------
 SSR: 2SI-2SA-REKS(2,2) Hamiltonian matrix
               PPS           OSS
   PPS    -5.92423228    0.00004619
   OSS     0.00004619   -5.66585283
--------------------------------------------------
  
----------------------------------------------------------------
 SSR: 2SI-2SA-REKS(2,2) states
                    E_n       C_{PPS}    C_{OSS}
 SSR state  1   -5.92423229  -1.000000   0.000179
 SSR state  2   -5.66585282  -0.000179  -1.000000
----------------------------------------------------------------
 
 unrelaxed SSR FONs for S1:  1.000000  1.000000
 
Total Energy:                       -5.6658528227 H         -154.1757 eV
Extrapolated to 0:                   0.0000000000 H            0.0000 eV
Total Mermin free energy:            0.0000000000 H            0.0000 eV
Force related energy:                0.0000000000 H            0.0000 eV

 Time - getHellmannFeynmanGradientL =      0.00574994 seconds.
 Time - REKS_getSccSpinLRonSite =      0.00004411 seconds.
current indices:  1    1  2
 Time - get_Z_del_no_Hxc =      0.00091982 seconds.
 Time - REKS_get_Q1_del =      0.00020003 seconds.
 
  CG solver: Y initial guess                            time =       0.00137591
  CG solver: Iteration    1    eps =    0.000000674713  time =       0.00133705
  CG solver: Iteration    2    eps =    0.000000065901  time =       0.00132799
  CG solver: Iteration    3    eps =    0.000000075187  time =       0.00131893
  CG solver: Iteration    4    eps =    0.000000001795  time =       0.00132012
  Convergence reached in CG solver after    4 iterations
  CG solver: converged R, Z, Q2 matrix                  time =       0.00114918
  Time - CG_grad =      0.00794601 seconds.
 
 Time - REKS_get_Q1_mat =      0.00006986 seconds.
 
  CG solver: Y initial guess                            time =       0.00133991
  CG solver: Iteration    1    eps =    0.003839314220  time =       0.00132012
  CG solver: Iteration    2    eps =    0.000432079392  time =       0.00132108
  CG solver: Iteration    3    eps =    0.000013656884  time =       0.00131989
  CG solver: Iteration    4    eps =    0.000000167833  time =       0.00131798
  CG solver: Iteration    5    eps =    0.000000120312  time =       0.00131488
  CG solver: Iteration    6    eps =    0.000000029346  time =       0.00131202
  CG solver: Iteration    7    eps =    0.000000000096  time =       0.00131702
  Convergence reached in CG solver after    7 iterations
  CG solver: converged R, Z, Q2 matrix                  time =       0.00114489
  Time - CG_grad =      0.01183510 seconds.
 
 Time - REKS_get_Q1_mat =      0.00006509 seconds.
 Time - REKS_RT_shift =      0.00914001 seconds.
 
--------------------------------------------------
 Gradient Information
--------------------------------------------------
 1 st state (SSR)
     0.00140248    -0.00642522     0.00810261
    -0.01009946     0.00110745     0.00173812
     0.00165324    -0.00728772     0.00338480
    -0.01216890     0.01136281    -0.00698379
     0.01252259    -0.00885626    -0.00838574
     0.00669004     0.01009894     0.00214399

 2 st state (SSR)
     0.14046297     0.00749061    -0.00437901
    -0.14621423    -0.00815430     0.00057979
     0.00790463     0.01207960     0.00372780
    -0.00176023    -0.01147388     0.00128033
     0.00131771     0.01181212    -0.00128052
    -0.00171085    -0.01175415     0.00007162
--------------------------------------------------
 Coupling Information
--------------------------------------------------
 between  1 and  2 states
--------------------------------------------------
 g vector - difference gradient
    -0.06953109    -0.00695762     0.00623997
     0.06805678     0.00463078     0.00057985
    -0.00312545    -0.00968385    -0.00017174
    -0.00520388     0.01141831    -0.00413150
     0.00560290    -0.01033415    -0.00355316
     0.00420075     0.01092652     0.00103657

 h vector - derivative coupling
    -0.00235904     0.00080334    -0.00233980
    -0.00172193    -0.00025198     0.00190777
     0.00068031    -0.00052240    -0.00066311
     0.00127190    -0.00008411     0.00156968
     0.00127731     0.00011300    -0.00155312
     0.00085144    -0.00005786     0.00107859

 G vector - GDV
    -0.06953024    -0.00695791     0.00624081
     0.06805739     0.00463087     0.00057916
    -0.00312569    -0.00968366    -0.00017150
    -0.00520434     0.01141834    -0.00413206
     0.00560244    -0.01033419    -0.00355261
     0.00420045     0.01092654     0.00103619

 H vector - DCV - non-adiabatic coupling
    -0.00922633     0.00309950    -0.00904702
    -0.00657016    -0.00096881     0.00738438
     0.00262868    -0.00203522    -0.00256667
     0.00491542    -0.00030972     0.00606937
     0.00495129     0.00042305    -0.00601593
     0.00330110    -0.00020881     0.00417587
--------------------------------------------------
 
 
--------------------------------------------------------------------------------
DFTB+ running times                          cpu [s]             wall clock [s]
--------------------------------------------------------------------------------
SCC                                    +     0.25  ( 86.1%)      0.25  ( 82.0%)
      Dense to sparse                        0.02  (  8.6%)      0.02  (  7.9%)
      Range separated Hamiltonian            0.02  (  7.3%)      0.02  (  6.8%)
  Density matrix creation                    0.01  (  5.1%)      0.01  (  4.9%)
Post-SCC processing                    +     0.04  ( 13.0%)      0.05  ( 15.7%)
  Eigenvector writing                        0.00  (  0.1%)      0.01  (  3.5%)
  Force calculation                          0.04  ( 12.8%)      0.04  ( 12.1%)
--------------------------------------------------------------------------------
Missing                                +     0.00  (  0.9%)      0.01  (  2.4%)
Total                                  =     0.29  (100.0%)      0.30  (100.0%)
--------------------------------------------------------------------------------
