 Fermi distribution function
 
Calculation with static geometry
 

********************************************************************************
 iSCC Total electronic   Diff electronic      SCC error    
    8   -0.55404606E+01   -0.28705927E-11    0.52561615E-06
********************************************************************************
 
 Total charge:     1.00000000

 Atomic gross charges (e)
 Atom           Charge
    1       0.15347479
    2      -0.00249769
    3       0.15536342
    4       0.16803338
    5       0.26726594
    6       0.25836016
 
Nr. of electrons (up):     12.00000000
Atom populations (up)
 Atom       Population
    1       3.84652521
    2       5.00249769
    3       0.84463658
    4       0.83196662
    5       0.73273406
    6       0.74163984
 
l-shell populations (up)
 Atom Sh.   l       Population
    1   1   0       1.26457610
    1   2   1       2.58194911
    2   1   0       1.39549789
    2   2   1       3.60699980
    3   1   0       0.84463658
    4   1   0       0.83196662
    5   1   0       0.73273406
    6   1   0       0.74163984
 
Orbital populations (up)
 Atom Sh.   l   m       Population  Label
    1   1   0   0       1.26457610  s
    1   2   1  -1       0.69604435  p_y
    1   2   1   0       0.97871607  p_z
    1   2   1   1       0.90718869  p_x
    2   1   0   0       1.39549789  s
    2   2   1  -1       1.30899928  p_y
    2   2   1   0       1.18411519  p_z
    2   2   1   1       1.11388534  p_x
    3   1   0   0       0.84463658  s
    4   1   0   0       0.83196662  s
    5   1   0   0       0.73273406  s
    6   1   0   0       0.74163984  s
 
Fermi level:                        -0.4804140914 H          -13.0727 eV
Band energy:                        -9.1561698923 H         -249.1521 eV
TS:                                  0.0000000000 H            0.0000 eV
Band free energy (E-TS):            -9.1561698923 H         -249.1521 eV
Extrapolated E(0K):                 -9.1561698923 H         -249.1521 eV
Input / Output electrons (q):     12.0000000000     12.0000000000
 
Energy H0:                          -5.6774388994 H         -154.4910 eV
Energy SCC:                          0.1369782743 H            3.7274 eV
Total Electronic energy:            -5.5404606251 H         -150.7636 eV
Repulsive energy:                    0.2659273698 H            7.2363 eV
Total energy:                       -5.2745332553 H         -143.5274 eV
Extrapolated to 0:                  -5.2745332553 H         -143.5274 eV
Total Mermin free energy:           -5.2745332553 H         -143.5274 eV
Force related energy:               -5.2745332553 H         -143.5274 eV
 
SCC converged
 
Excitation Energy:                   0.2229218781 H            6.0660 eV
 
Total Forces
    1     -0.021180891561      0.012518267428      0.012913558766
    2      0.010550686618     -0.024779902478     -0.011756729448
    3     -0.004361384719     -0.000879473430     -0.001831763618
    4      0.010960645323     -0.001741364326     -0.007425271806
    5     -0.002970494075      0.006476619519      0.009439492112
    6      0.007001438413      0.008405853286     -0.001339286004
 
Maximal derivative component:        0.247799E-01 au
 
 
