|===============================================================================
|
|  DFTB+ release 19.1
|
|  Copyright (C) 2006 - 2019  DFTB+ developers group
|
|===============================================================================
|
|  When publishing results obtained with DFTB+, please cite the following
|  reference:
|
|  * B. Aradi, B. Hourahine and T. Frauenheim,
|    DFTB+, a Sparse Matrix-Based Implementation of the DFTB Method,
|    J. Phys. Chem. A, 111 5678 (2007).  [doi: 10.1021/jp070186p]
|
|  You should also cite additional publications crediting the parametrization
|  data you use. Please consult the documentation of the SK-files for the
|  references.
|
|===============================================================================

Reading input file 'dftb_in.hsd'
Parser version: 7

--------------------------------------------------------------------------------
Reading SK-files:
Done.


Processed input in HSD format written to 'dftb_pin.hsd'

Starting initialization...
--------------------------------------------------------------------------------
OpenMP threads:              1
Chosen random seed:          1053783594
Mode:                        Static calculation
Self consistent charges:     Yes
SCC-tolerance:                 0.100000E-05
Max. scc iterations:                    200
Shell resolved Hubbard:      No
Spin polarisation:           No
Nr. of up electrons:             6.000000
Nr. of down electrons:           6.000000
Periodic boundaries:         No
Electronic solver:           Relatively robust
Mixer:                       Broyden mixer
Mixing parameter:                  0.200000
Maximal SCC-cycles:                     200
Nr. of chrg. vec. in memory:              0
Electronic temperature:        0.100000E-07 H      0.272114E-06 eV
Initial charges:             Set automatically (system chrg:   0.100E+01)
Included shells:             C:  s, p
                             N:  s, p
                             H:  s
Extra options:
                             Mulliken analysis
                             Force calculation
Force type                   original
                             Eigenvector printing

--------------------------------------------------------------------------------

***  Geometry step: 0

 iSCC Total electronic   Diff electronic      SCC error    
    1   -0.55368310E+01    0.00000000E+00    0.53288334E+00
    2   -0.55386058E+01   -0.17748615E-02    0.38170517E+00
    3   -0.55404006E+01   -0.17947484E-02    0.29769501E-01
    4   -0.55404602E+01   -0.59637279E-04    0.35721915E-02
    5   -0.55404603E+01   -0.98843093E-07    0.18785331E-02
    6   -0.55404606E+01   -0.31999109E-06    0.57981251E-04
    7   -0.55404606E+01   -0.46508575E-10    0.87704734E-05
    8   -0.55404606E+01   -0.28705927E-11    0.52561615E-06
>> Charges saved for restart in charges.bin
 
Total Energy:                       -5.0516113772 H         -137.4613 eV
Extrapolated to 0:                  -5.2745332553 H         -143.5274 eV
Total Mermin free energy:           -5.0516113772 H         -137.4613 eV
Force related energy:               -5.2745332553 H         -143.5274 eV
 
--------------------------------------------------------------------------------
DFTB+ running times                          cpu [s]             wall clock [s]
--------------------------------------------------------------------------------
SCC                                    +     0.01  ( 61.2%)      0.02  ( 62.6%)
--------------------------------------------------------------------------------
Missing                                +     0.01  ( 38.8%)      0.01  ( 37.4%)
Total                                  =     0.02  (100.0%)      0.03  (100.0%)
--------------------------------------------------------------------------------
