
 Primary working directories    : int
 Secondary working directories  : int
 Wavefunction directory         : /home/islee/unixmd-develop/39-unixmd-new_code_structure-change_mqc_structure/examples/molpro_casscf/TRAJ.eh/unixmd/scr_qm/wfu/
 Main file repository           : /home/islee/unixmd-develop/39-unixmd-new_code_structure-change_mqc_structure/examples/molpro_casscf/TRAJ.eh/unixmd/scr_qm/int/

 SHA1      : e0c7f9aab6313248a7a7ade58897d3f3adec42d9
 NAME      : 2015.1.15
 ARCHNAME  : linux/x86_64
 FC        : /opt/intel/composer_xe_2015.1.133/bin/intel64/ifort
 BLASLIB   : -Wl,-_start-group /opt/intel/mkl/lib/intel64/libmkl_intel_ilp64.a /opt/intel/mkl/lib/intel64/libmkl_intel_thread.a /opt/intel/mkl/lib/intel64/libmkl_core.a -Wl,-_end-group
 id        : csmmolpro

 Nodes     nprocs
 thor         1

 Using customized tuning parameters: mindgm=1; mindgv=20; mindgc=4; mindgr=1; noblas=0; minvec=7
 default implementation of scratch files=df  

 file,1,int.int,delete
 file,2,wf.wfu,unknown
 restart,2
 
 geometry={angstrom
 Including file /home/islee/unixmd-develop/39-unixmd-new_code_structure-change_mqc_structure/examples/molpro_casscf/TRAJ.eh/unixmd/scr_qm/geometry.xyz
 >6
 >C       -0.68907674    -0.00323057    -0.04225061
 >C        0.66005763     0.00238206    -0.05938835
 >H       -1.33637146     0.92645336    -0.11371089
 >H       -1.30059184    -0.88429981    -0.02060434
 >H        1.19977533     0.93007474    -0.04767622
 >H        1.26618826    -0.93323526     0.07528088
 }
 
 symmetry nosym
 basis=6-31G
 
 {mcscf,maxit=20,energy=1e-08,gradient=1e-06,step=0.01
 frozen,0
 closed,7
 occ,9
 start,2140.2
 orbital,2140.2
 wf,16,1,0
 state,2
 cpmcscf,grad,1.1,spin=0,accu=1e-07,record=5100.3
 cpmcscf,grad,2.1,spin=0,accu=1e-07,record=5101.3
 cpmcscf,nacm,1.1,2.1,spin=0,accu=1e-07,record=5102.3
 }
 en(1) = ENERGY(1)
 en(2) = ENERGY(2)
 
 
 {force
 samc,5100.3
 }
 
 {force
 samc,5101.3
 }
 
 {force
 samc,5102.3
 }
 

 Variables initialized (889), CPU time= 0.01 sec
 Commands  initialized (702), CPU time= 0.01 sec, 572 directives.
 Default parameters read. Elapsed time= 0.07 sec

 Checking input...
 Passed
1


                                         ***  PROGRAM SYSTEM MOLPRO  ***
                                       Copyright, TTI GmbH Stuttgart, 2015
                                    Version 2015.1 linked Jan  2 2017 18:18:08


 **********************************************************************************************************************************
 LABEL *                                                                                 
  64 bit serial version                                                                  DATE: 22-Oct-19          TIME: 08:52:09  
 **********************************************************************************************************************************

 SHA1:             e0c7f9aab6313248a7a7ade58897d3f3adec42d9
 **********************************************************************************************************************************

 Variable memory set to  500000000 words,  buffer space   230000 words



 Temporary file  1  int.int  assigned.  Implementation=df  
 Permanent file  2  wf.wfu   assigned.  Implementation=df  

 PROGRAM * RESTART 



 **********************************************************************************************************************************
 DATASETS  * FILE   NREC   LENGTH (MB)   RECORD NAMES
              2       1        0.03       500   
                                          VAR  

 PROGRAMS   *        TOTAL   RESTART
 CPU TIMES  *         0.16      0.01
 REAL TIME  *         0.16 SEC
 DISK USED  *         0.03 MB      
 **********************************************************************************************************************************

Geometry recognized as XYZ

 SETTING BASIS          =    6-31G


 Recomputing integrals since basis changed


 Using spherical harmonics

 Library entry C      S 6-31G                selected for orbital group  1
 Library entry C      P 6-31G                selected for orbital group  1
 Library entry H      S 6-31G                selected for orbital group  2


 PROGRAM * SEWARD (Integral evaluation for generally contracted gaussian basis sets)     Author: Roland Lindh, 1990

 Geometry written to block  1 of record 700


 Point group  C1  



 ATOMIC COORDINATES

 NR  ATOM    CHARGE       X              Y              Z

   1  C       6.00   -1.302166317   -0.006104893   -0.079842081
   2  C       6.00    1.247328147    0.004501441   -0.112227716
   3  H       1.00   -2.525376060    1.750743118   -0.214882439
   4  H       1.00   -2.457762377   -1.671084453   -0.038936560
   5  H       1.00    2.267246785    1.757586534   -0.090094998
   6  H       1.00    2.392749034   -1.763559051    0.142260246

 Bond lengths in Bohr (Angstrom)

 1-2  2.549722210  1-3  2.144992518  1-4  2.027124183  2-5  2.028307479  2-6  2.121978095
     ( 1.349254888)     ( 1.135081158)     ( 1.072707921)     ( 1.073334094)     ( 1.122902450)

 Bond angles

  1-2-5  120.41463516   1-2-6  122.32707363   2-1-3  124.47212968   2-1-4  125.00785791

  3-1-4  110.42044793   5-2-6  116.57805715

 NUCLEAR CHARGE:                   16
 NUMBER OF PRIMITIVE AOS:          60
 NUMBER OF SYMMETRY AOS:           60
 NUMBER OF CONTRACTIONS:           26   (  26A   )
 NUMBER OF CORE ORBITALS:           2   (   2A   )
 NUMBER OF VALENCE ORBITALS:       12   (  12A   )


 NUCLEAR REPULSION ENERGY   32.87732853

 Eigenvalues of metric

         1 0.103E-01 0.203E-01 0.396E-01 0.486E-01 0.794E-01 0.251E+00 0.253E+00 0.281E+00


 Contracted 2-electron integrals neglected if value below      1.0D-11
 AO integral compression algorithm  1   Integral accuracy      1.0D-11

     0.524 MB (compressed) written to integral file ( 84.4%)


 NUMBER OF SORTED TWO-ELECTRON INTEGRALS:      61776.     BUFFER LENGTH:  32768
 NUMBER OF SEGMENTS:   1  SEGMENT LENGTH:      61776      RECORD LENGTH: 524288

 Memory used in sort:       0.62 MW

 SORT1 READ       85775. AND WROTE       60127. INTEGRALS IN      1 RECORDS. CPU TIME:     0.00 SEC, REAL TIME:     0.00 SEC
 SORT2 READ       60127. AND WROTE       61776. INTEGRALS IN      2 RECORDS. CPU TIME:     0.01 SEC, REAL TIME:     0.01 SEC

 FILE SIZES:   FILE 1:    19.7 MBYTE,  FILE 4:     4.2 MBYTE,   TOTAL:     23.9 MBYTE

 OPERATOR DM      FOR CENTER  0  COORDINATES:    0.000000    0.000000    0.000000


 **********************************************************************************************************************************
 DATASETS  * FILE   NREC   LENGTH (MB)   RECORD NAMES
              1      19       19.49       500      610      700      900      950      970     1000      129      960     1100   
                                          VAR    BASINP    GEOM    SYMINP    ZMAT    AOBASIS   BASIS     P2S    ABASIS      S 
                                         1400     1410     1200     1210     1080     1600     1650     1300     1700   
                                           T        V       H0       H01     AOSYM     SMH    MOLCAS    ERIS     OPER   

              2       5        1.48       500      610      700     1000      520   
                                          VAR    BASINP    GEOM     BASIS   MCVARS    

 PROGRAMS   *        TOTAL       INT   RESTART
 CPU TIMES  *         0.38      0.22      0.01
 REAL TIME  *         0.62 SEC
 DISK USED  *        25.45 MB      
 **********************************************************************************************************************************


 PROGRAM * MULTI (Direct Multiconfiguration SCF)       Authors: P.J. Knowles, H.-J. Werner (1984)     S.T. Elbert (1988)


 Number of closed-shell orbitals:   7 (   7 )
 Number of active  orbitals:        2 (   2 )
 Number of external orbitals:      17 (  17 )

 State symmetry 1

 Number of electrons:     2    Spin symmetry=Singlet   Space symmetry=1
 Number of states:        2
 Number of CSFs:          3   (4 determinants, 4 intermediate states)

 Orbital guess generated from atomic densities. Full valence occupancy:    8

 Wavefunction dump at record             2140.2

 Convergence thresholds  0.10E-05 (gradient)  0.10E-07 (energy)  0.10E-01 (step length)

 Weight factors for state symmetry  1:    0.50000   0.50000

 Number of orbital rotations:      167   (    14 Core/Active    119 Core/Virtual   0 Active/Active     34 Active/Virtual)
 Total number of variables:        175


 ITER. MIC  NCI  NEG     ENERGY(VAR)     ENERGY(PROJ)   ENERGY CHANGE     GRAD(0)  GRAD(ORB)   GRAD(CI)     STEP       TIME

   1   28    7    0     -77.80766059     -77.82847038   -0.02080979    0.19904548 0.00006161 0.00000000  0.15D+00      0.08
   2   33   13    0     -77.82882533     -77.82885576   -0.00003042    0.00720025 0.00000000 0.00000000  0.11D-01      0.11
   3   26   13    0     -77.82885584     -77.82885584   -0.00000000    0.00003624 0.00000001 0.00000000  0.18D-03      0.13
   4   17   13    0     -77.82885584     -77.82885584   -0.00000000    0.00000039 0.00000001 0.00000000  0.74D-06      0.15

 ** WVFN ****  CONVERGENCE REACHED, FINAL GRADIENT:  0.15D-07

 Solving MCSCF z-vector equations for state  1.1, requested accuracy=      0.10D-06
 Convergence reached in  18 iterations ( 18 expansion vectors), accuracy=  0.32D-07

 SA-Gradient information saved on record      5100.3

 Solving MCSCF z-vector equations for state  2.1, requested accuracy=      0.10D-06
 Convergence reached in  18 iterations ( 18 expansion vectors), accuracy=  0.32D-07

 SA-Gradient information saved on record      5101.3

 SOLVING CP-MCSCF NACM: 2.1 - 1.1
 Convergence reached in  20 iterations ( 20 expansion vectors), accuracy=  0.20D-07

 SA-Gradient information saved on record      5102.3



 Results for state 1.1
 =====================

 !MCSCF STATE 1.1 Energy              -78.020057459702
 Nuclear energy                        32.87732853
 Kinetic energy                        77.91640819
 One electron energy                 -169.06238653
 Two electron energy                   58.16500054
 Virial ratio                           2.00133026

 !MCSCF STATE 1.1 Dipole moment        -0.01814646    -0.00031455     0.03472626
 Dipole moment /Debye                  -0.04612067    -0.00079946     0.08825957

 Results for state 2.1
 =====================

 !MCSCF STATE 2.1 Energy              -77.637654223728
 Nuclear energy                        32.87732853
 Kinetic energy                        78.03180953
 One electron energy                 -168.43579760
 Two electron energy                   57.92081484
 Virial ratio                           1.99494879

 !MCSCF STATE 2.1 Dipole moment        -0.01993894     0.00766923     0.05810344
 Dipole moment /Debye                  -0.05067641     0.01949197     0.14767455

 State-averaged charge density matrix saved on record  2140.2 (density set 1)

 !MCSCF expec         <1.1|DMX|1.1>    -0.018146455824 au =    -0.046120669194 Debye
 !MCSCF trans         <2.1|DMX|1.1>     1.540192967279 au =     3.914523641778 Debye
 !MCSCF expec         <2.1|DMX|2.1>    -0.019938939264 au =    -0.050676409255 Debye

 !MCSCF expec         <1.1|DMY|1.1>    -0.000314550987 au =    -0.000799456498 Debye
 !MCSCF trans         <2.1|DMY|1.1>     0.004141435846 au =     0.010525790518 Debye
 !MCSCF expec         <2.1|DMY|2.1>     0.007669234889 au =     0.019491974010 Debye

 !MCSCF expec         <1.1|DMZ|1.1>     0.034726261325 au =     0.088259571257 Debye
 !MCSCF trans         <2.1|DMZ|1.1>    -0.075739459614 au =    -0.192497895767 Debye
 !MCSCF expec         <2.1|DMZ|2.1>     0.058103443486 au =     0.147674549894 Debye


 Natural orbital dump (state averaged) at molpro section  2140.2    (Orbital set 2)



 **********************************************************************************************************************************
 DATASETS  * FILE   NREC   LENGTH (MB)   RECORD NAMES
              1      20       19.88       500      610      700      900      950      970     1000      129      960     1100   
                                          VAR    BASINP    GEOM    SYMINP    ZMAT    AOBASIS   BASIS     P2S    ABASIS      S 
                                         1400     1410     1200     1210     1080     1600     1650     1300     1700     1380   
                                           T        V       H0       H01     AOSYM     SMH    MOLCAS    ERIS     OPER     JKOP   

              2       6        4.02       500      610      700     1000      520     2140   
                                          VAR    BASINP    GEOM     BASIS   MCVARS    MCSCF   

              3       4        0.05      1000     5100     5101     5102   
                                         BASIS   CPSAMC   CPSAMC   CPSAMC    

 PROGRAMS   *        TOTAL     MCSCF       INT   RESTART
 CPU TIMES  *         0.57      0.18      0.22      0.01
 REAL TIME  *         0.92 SEC
 DISK USED  *        28.84 MB      
 **********************************************************************************************************************************
 SETTING EN(1)          =       -78.02005746  HARTREE                         
 SETTING EN(2)          =       -77.63765422  HARTREE                         


 PROGRAM * FORCE (Gradient of the energy)

 SA-MCSCF information from    5100.3
 Orbitals from record         2140.2

 Number of closed-shell orbitals:  7 (  7 )
 Number of active orbitals:        2 (  2 )
 Number of occupied orbitals:      9 (  9 )

 Number of electrons= 16     Singlet     Space symmetry=1      Wavefunction type: SA-MCSCF


 End of calculation of the energy gradient  ,IREST=   0


 SA-MC GRADIENT FOR STATE 1.1

 Atom          dE/dx               dE/dy               dE/dz

   1         0.034033974        -0.030429554         0.012028581
   2        -0.015570862         0.020890199        -0.023129538
   3        -0.029900195         0.027565312         0.005789958
   4        -0.006898196         0.005922008        -0.011255104
   5        -0.000756063         0.002451323        -0.002725622
   6         0.019091342        -0.026399288         0.019291726

 Nuclear force contribution to virial =         0.166018103


 **********************************************************************************************************************************
 DATASETS  * FILE   NREC   LENGTH (MB)   RECORD NAMES
              1      20       19.88       500      610      700      900      950      970     1000      129      960     1100   
                                          VAR    BASINP    GEOM    SYMINP    ZMAT    AOBASIS   BASIS     P2S    ABASIS      S 
                                         1400     1410     1200     1210     1080     1600     1650     1300     1700     1380   
                                           T        V       H0       H01     AOSYM     SMH    MOLCAS    ERIS     OPER     JKOP   

              2       6        4.02       500      610      700     1000      520     2140   
                                          VAR    BASINP    GEOM     BASIS   MCVARS    MCSCF   

              3       4        0.05      1000     5100     5101     5102   
                                         BASIS   CPSAMC   CPSAMC   CPSAMC    

 PROGRAMS   *        TOTAL     FORCE     MCSCF       INT   RESTART
 CPU TIMES  *         0.72      0.15      0.18      0.22      0.01
 REAL TIME  *         1.09 SEC
 DISK USED  *        28.84 MB      
 **********************************************************************************************************************************


 PROGRAM * FORCE (Gradient of the energy)

 SA-MCSCF information from    5101.3
 Orbitals from record         2140.2

 Number of closed-shell orbitals:  7 (  7 )
 Number of active orbitals:        2 (  2 )
 Number of occupied orbitals:      9 (  9 )

 Number of electrons= 16     Singlet     Space symmetry=1      Wavefunction type: SA-MCSCF


 End of calculation of the energy gradient  ,IREST=   0


 SA-MC GRADIENT FOR STATE 2.1

 Atom          dE/dx               dE/dy               dE/dz

   1         0.155413732        -0.023429939         0.002355566
   2        -0.132931090         0.020724759         0.001764072
   3        -0.029814951         0.026077262        -0.016898814
   4        -0.006719554         0.003483725         0.012113517
   5        -0.004363417         0.002757287         0.011460188
   6         0.018415280        -0.029613094        -0.010794529

 Nuclear force contribution to virial =        -0.144858651


 **********************************************************************************************************************************
 DATASETS  * FILE   NREC   LENGTH (MB)   RECORD NAMES
              1      20       19.88       500      610      700      900      950      970     1000      129      960     1100   
                                          VAR    BASINP    GEOM    SYMINP    ZMAT    AOBASIS   BASIS     P2S    ABASIS      S 
                                         1400     1410     1200     1210     1080     1600     1650     1300     1700     1380   
                                           T        V       H0       H01     AOSYM     SMH    MOLCAS    ERIS     OPER     JKOP   

              2       6        4.02       500      610      700     1000      520     2140   
                                          VAR    BASINP    GEOM     BASIS   MCVARS    MCSCF   

              3       4        0.05      1000     5100     5101     5102   
                                         BASIS   CPSAMC   CPSAMC   CPSAMC    

 PROGRAMS   *        TOTAL     FORCE     FORCE     MCSCF       INT   RESTART
 CPU TIMES  *         0.87      0.14      0.15      0.18      0.22      0.01
 REAL TIME  *         1.24 SEC
 DISK USED  *        28.84 MB      
 **********************************************************************************************************************************


 PROGRAM * FORCE (Gradient of the energy)

 SA-MCSCF information from    5102.3
 Orbitals from record         2140.2

 Number of closed-shell orbitals:  7 (  7 )
 Number of active orbitals:        2 (  2 )
 Number of occupied orbitals:      9 (  9 )

 Number of electrons= 16     Singlet     Space symmetry=1      Wavefunction type: SA-MCSCF


 End of calculation of the energy gradient  ,IREST=   0


 SA-MC NACME FOR STATES 1.1 - 2.1

 Atom          dE/dx               dE/dy               dE/dz

   1         0.248734251         0.002858512         0.001708806
   2         0.265862359         0.000852194        -0.054864969
   3        -0.012476475         0.004946759         0.024983481
   4        -0.011718110        -0.007043498        -0.003933814
   5        -0.011257174        -0.005269115         0.020935539
   6        -0.012565226         0.005369755        -0.004071907



 **********************************************************************************************************************************
 DATASETS  * FILE   NREC   LENGTH (MB)   RECORD NAMES
              1      20       19.88       500      610      700      900      950      970     1000      129      960     1100   
                                          VAR    BASINP    GEOM    SYMINP    ZMAT    AOBASIS   BASIS     P2S    ABASIS      S 
                                         1400     1410     1200     1210     1080     1600     1650     1300     1700     1380   
                                           T        V       H0       H01     AOSYM     SMH    MOLCAS    ERIS     OPER     JKOP   

              2       6        4.02       500      610      700     1000      520     2140   
                                          VAR    BASINP    GEOM     BASIS   MCVARS    MCSCF   

              3       4        0.05      1000     5100     5101     5102   
                                         BASIS   CPSAMC   CPSAMC   CPSAMC    

 PROGRAMS   *        TOTAL     FORCE     FORCE     FORCE     MCSCF       INT   RESTART
 CPU TIMES  *         1.02      0.14      0.14      0.15      0.18      0.22      0.01
 REAL TIME  *         1.40 SEC
 DISK USED  *        28.84 MB      
 **********************************************************************************************************************************

 MCSCF/6-31G energy=    -77.637654223728
 **********************************************************************************************************************************
 Molpro calculation terminated
 Variable memory released
