 Fermi distribution function
 
Calculation with static geometry
 

********************************************************************************
 iSCC Total electronic   Diff electronic      SCC error    
   11   -0.53396732E+01   -0.34638958E-13    0.11916670E-07
********************************************************************************
 
 Total charge:     1.00000000

 Atomic gross charges (e)
 Atom           Charge
    1       0.22400591
    2      -0.10415328
    3       0.18302255
    4       0.15716177
    5       0.25756003
    6       0.28240302
 
Nr. of electrons (up):     12.00000000
Atom populations (up)
 Atom       Population
    1       3.77599409
    2       5.10415328
    3       0.81697745
    4       0.84283823
    5       0.74243997
    6       0.71759698
 
l-shell populations (up)
 Atom Sh.   l       Population
    1   1   0       1.34193862
    1   2   1       2.43405547
    2   1   0       1.46754744
    2   2   1       3.63660585
    3   1   0       0.81697745
    4   1   0       0.84283823
    5   1   0       0.74243997
    6   1   0       0.71759698
 
Orbital populations (up)
 Atom Sh.   l   m       Population  Label
    1   1   0   0       1.34193862  s
    1   2   1  -1       0.58780210  p_y
    1   2   1   0       0.99346117  p_z
    1   2   1   1       0.85279220  p_x
    2   1   0   0       1.46754744  s
    2   2   1  -1       1.36469748  p_y
    2   2   1   0       1.17867960  p_z
    2   2   1   1       1.09322877  p_x
    3   1   0   0       0.81697745  s
    4   1   0   0       0.84283823  s
    5   1   0   0       0.74243997  s
    6   1   0   0       0.71759698  s
 
Fermi level:                        -0.5221912683 H          -14.2095 eV
Band energy:                        -8.8269640088 H         -240.1939 eV
TS:                                  0.0000000000 H            0.0000 eV
Band free energy (E-TS):            -8.8269640088 H         -240.1939 eV
Extrapolated E(0K):                 -8.8269640088 H         -240.1939 eV
Input / Output electrons (q):     12.0000000000     12.0000000000
 
Energy H0:                          -5.4745486045 H         -148.9700 eV
Energy SCC:                          0.1348754468 H            3.6701 eV
Total Electronic energy:            -5.3396731578 H         -145.2999 eV
Repulsive energy:                    0.1585974140 H            4.3157 eV
Total energy:                       -5.1810757438 H         -140.9842 eV
Extrapolated to 0:                  -5.1810757438 H         -140.9842 eV
Total Mermin free energy:           -5.1810757438 H         -140.9842 eV
Force related energy:               -5.1810757438 H         -140.9842 eV
 
SCC converged
 
Total Forces
    1      0.153652732767      0.049644927188      0.028562392164
    2     -0.158394075837      0.038932172042      0.030885033836
    3      0.005529970829     -0.022083003459     -0.027867505798
    4      0.002170201595     -0.034644548157     -0.005070128362
    5      0.007074246527     -0.017320044832     -0.013683124330
    6     -0.010033075880     -0.014529502781     -0.012826667510
 
Maximal derivative component:        0.158394E+00 au
 
 
