 Fermi distribution function
 
Calculation with static geometry
 

********************************************************************************
 iSCC Total electronic   Diff electronic      SCC error    
    1   -0.53396732E+01    0.00000000E+00    0.11916670E-07
********************************************************************************
 
 Total charge:     1.00000000

 Atomic gross charges (e)
 Atom           Charge
    1       0.22400591
    2      -0.10415328
    3       0.18302255
    4       0.15716177
    5       0.25756003
    6       0.28240302
 
Nr. of electrons (up):     12.00000000
Atom populations (up)
 Atom       Population
    1       3.77599409
    2       5.10415328
    3       0.81697745
    4       0.84283823
    5       0.74243997
    6       0.71759698
 
l-shell populations (up)
 Atom Sh.   l       Population
    1   1   0       1.34193862
    1   2   1       2.43405547
    2   1   0       1.46754744
    2   2   1       3.63660585
    3   1   0       0.81697745
    4   1   0       0.84283823
    5   1   0       0.74243997
    6   1   0       0.71759698
 
Orbital populations (up)
 Atom Sh.   l   m       Population  Label
    1   1   0   0       1.34193862  s
    1   2   1  -1       0.58780210  p_y
    1   2   1   0       0.99346117  p_z
    1   2   1   1       0.85279220  p_x
    2   1   0   0       1.46754744  s
    2   2   1  -1       1.36469748  p_y
    2   2   1   0       1.17867960  p_z
    2   2   1   1       1.09322877  p_x
    3   1   0   0       0.81697745  s
    4   1   0   0       0.84283823  s
    5   1   0   0       0.74243997  s
    6   1   0   0       0.71759698  s
 
Fermi level:                        -0.5221912683 H          -14.2095 eV
Band energy:                        -8.8269640088 H         -240.1939 eV
TS:                                  0.0000000000 H            0.0000 eV
Band free energy (E-TS):            -8.8269640088 H         -240.1939 eV
Extrapolated E(0K):                 -8.8269640088 H         -240.1939 eV
Input / Output electrons (q):     12.0000000000     12.0000000000
 
Energy H0:                          -5.4745486045 H         -148.9700 eV
Energy SCC:                          0.1348754468 H            3.6701 eV
Total Electronic energy:            -5.3396731578 H         -145.2999 eV
Repulsive energy:                    0.1585974140 H            4.3157 eV
Total energy:                       -5.1810757438 H         -140.9842 eV
Extrapolated to 0:                  -5.1810757438 H         -140.9842 eV
Total Mermin free energy:           -5.1810757438 H         -140.9842 eV
Force related energy:               -5.1810757438 H         -140.9842 eV
 
SCC converged
 
Excitation Energy:                   0.1390793096 H            3.7845 eV
 
Total Forces
    1      0.132502793481     -0.027717068732     -0.008509397505
    2     -0.114995347432      0.024523123299      0.020707324450
    3     -0.007923981474      0.012963932148     -0.010577711705
    4     -0.009030357951      0.003309934550      0.011367704814
    5      0.007155276820     -0.009053975950     -0.006529630724
    6     -0.007708383444     -0.004025945314     -0.006458289330
 
Maximal derivative component:        0.132503E+00 au
 
 
