 Fermi distribution function
 
Calculation with static geometry
 

********************************************************************************
 iSCC Total electronic   Diff electronic      SCC error    
    8   -0.48699972E+01   -0.22479796E-11    0.71644743E-06
********************************************************************************
 
 Total charge:    -0.00000000

 Atomic gross charges (e)
 Atom           Charge
    1      -0.17609229
    2      -0.17495176
    3       0.08177749
    4       0.09281471
    5       0.08935398
    6       0.08709788
 
Nr. of electrons (up):     12.00000000
Atom populations (up)
 Atom       Population
    1       4.17609229
    2       4.17495176
    3       0.91822251
    4       0.90718529
    5       0.91064602
    6       0.91290212
 
l-shell populations (up)
 Atom Sh.   l       Population
    1   1   0       1.27998615
    1   2   1       2.89610613
    2   1   0       1.28555570
    2   2   1       2.88939606
    3   1   0       0.91822251
    4   1   0       0.90718529
    5   1   0       0.91064602
    6   1   0       0.91290212
 
Orbital populations (up)
 Atom Sh.   l   m       Population  Label
    1   1   0   0       1.27998615  s
    1   2   1  -1       0.96497402  p_y
    1   2   1   0       0.99584488  p_z
    1   2   1   1       0.93528723  p_x
    2   1   0   0       1.28555570  s
    2   2   1  -1       0.95397679  p_y
    2   2   1   0       0.99746819  p_z
    2   2   1   1       0.93795108  p_x
    3   1   0   0       0.91822251  s
    4   1   0   0       0.90718529  s
    5   1   0   0       0.91064602  s
    6   1   0   0       0.91290212  s
 
Fermi level:                        -0.1553057201 H           -4.2261 eV
Band energy:                        -4.7063113723 H         -128.0652 eV
TS:                                  0.0000000000 H            0.0000 eV
Band free energy (E-TS):            -4.7063113723 H         -128.0652 eV
Extrapolated E(0K):                 -4.7063113723 H         -128.0652 eV
Input / Output electrons (q):     12.0000000000     12.0000000000
 
Energy H0:                          -4.8723620503 H         -132.5837 eV
Energy SCC:                          0.0023648135 H            0.0643 eV
Total Electronic energy:            -4.8699972368 H         -132.5194 eV
Repulsive energy:                   -0.0233803363 H           -0.6362 eV
Total energy:                       -4.8933775731 H         -133.1556 eV
Extrapolated to 0:                  -4.8933775731 H         -133.1556 eV
Total Mermin free energy:           -4.8933775731 H         -133.1556 eV
Force related energy:               -4.8933775731 H         -133.1556 eV
 
SCC converged
 
Excitation Energy:                   0.2392845535 H            6.5113 eV
 
Total Forces
    1      0.026699825003      0.016928060148     -0.010532680914
    2     -0.022049098186     -0.016107626994     -0.011139572613
    3      0.012811361437     -0.011426735916      0.007002890640
    4     -0.000030367177     -0.010329031000      0.004702606396
    5      0.002267303576     -0.000438687480      0.004630512592
    6     -0.019699024653      0.021374021242      0.005336243899
 
Maximal derivative component:        0.266998E-01 au
 
Dipole moment:   -0.00113348   -0.00459647   -0.06036566 au
Dipole moment:   -0.00288103   -0.01168307   -0.15343421 Debye
 
 
