     6
  Step:  1000            Position(A)                                  Velocity(au)
C        -0.67426071     0.01519208    -0.05658087    -0.00005550    -0.00007911     0.00008183
C         0.62821339    -0.01345529    -0.06560956     0.00008222     0.00015767     0.00000990
H        -1.21527204     0.92203683    -0.12013988    -0.00076770    -0.00056184    -0.00031937
H        -1.20496559    -0.94531076     0.13710390     0.00050781     0.00045615    -0.00043635
H         1.20205120     0.90630477    -0.01519394     0.00118681    -0.00096786    -0.00018348
H         1.20940548    -0.87372608     0.15303406    -0.00124535     0.00013751    -0.00015395
