     6
  Step:     0            Position(A)                                  Velocity(au)
C        -0.69284974     0.00000000     0.00000000     0.00000000     0.00000000     0.00000000
C         0.66284974     0.00000000     0.00000000     0.00000000     0.00000000     0.00000000
H        -1.03381877     0.72280451    -0.32280655     0.00000000     0.00000000     0.00000000
H        -1.23381879    -0.72280451    -0.34280655     0.00000000     0.00000000     0.00000000
H         1.03381877     0.75280451    -0.32280655     0.00000000     0.00000000     0.00000000
H         1.03381877    -0.72280451    -0.31280655     0.00000000     0.00000000     0.00000000
     6
  Step:     1            Position(A)                                  Velocity(au)
C        -0.69278977    -0.00004638     0.00002798     0.00004367    -0.00003371     0.00002032
C         0.66277379     0.00001014     0.00003703    -0.00005533     0.00000735     0.00002691
H        -1.03432421     0.72384168    -0.32309520    -0.00036816     0.00075524    -0.00020971
H        -1.23405508    -0.72322905    -0.34284672    -0.00017235    -0.00030978    -0.00002910
H         1.03422269     0.75356401    -0.32299831     0.00029447     0.00055345    -0.00013943
H         1.03434700    -0.72374476    -0.31306060     0.00038489    -0.00068478    -0.00018463
     6
  Step:     2            Position(A)                                  Velocity(au)
C        -0.69261087    -0.00018435     0.00011115     0.00008662    -0.00006656     0.00004009
C         0.66254715     0.00004017     0.00014719    -0.00010978     0.00001441     0.00005317
H        -1.03583231     0.72693511    -0.32395352    -0.00073038     0.00149745    -0.00041396
H        -1.23476143    -0.72449878    -0.34296569    -0.00034287    -0.00061673    -0.00005705
H         1.03542928     0.75583148    -0.32356912     0.00058520     0.00109893    -0.00027561
H         1.03592380    -0.72654974    -0.31381633     0.00076405    -0.00135817    -0.00036464
     6
  Step:     3            Position(A)                                  Velocity(au)
C        -0.69231601    -0.00041043     0.00024724     0.00012815    -0.00009776     0.00005877
C         0.66217336     0.00008894     0.00032781    -0.00016254     0.00002092     0.00007813
H        -1.03831882     0.73203156    -0.32535923    -0.00108104     0.00221421    -0.00060753
H        -1.23593034    -0.72660211    -0.34315875    -0.00050977    -0.00091809    -0.00008277
H         1.03742326     0.75957430    -0.32450565     0.00086858     0.00162875    -0.00040544
H         1.03852579    -0.73117289    -0.31505488     0.00113205    -0.00200927    -0.00053561
     6
  Step:     4            Position(A)                                  Velocity(au)
C        -0.69191001    -0.00071902     0.00043259     0.00016761    -0.00012659     0.00007589
C         0.66165818     0.00015460     0.00057451    -0.00021283     0.00002666     0.00010124
H        -1.04174475     0.73904510    -0.32727622    -0.00141505     0.00289432    -0.00078576
H        -1.23754945    -0.72952002    -0.34341839    -0.00067130    -0.00121120    -0.00010526
H         1.04017976     0.76473946    -0.32578655     0.00114129     0.00213582    -0.00052612
H         1.04211522    -0.73753892    -0.31674572     0.00148388    -0.00262821    -0.00069358
     6
  Step:     5            Position(A)                                  Velocity(au)
C        -0.69139931    -0.00110275     0.00066231     0.00020445    -0.00015246     0.00009105
C         0.66100935     0.00023475     0.00088151    -0.00025998     0.00003144     0.00012201
H        -1.04605808     0.74786124    -0.32965670    -0.00172810     0.00352828    -0.00094480
H        -1.23960184    -0.73322643    -0.34373442    -0.00082589    -0.00149360    -0.00012357
H         1.04366524     0.77125560    -0.32738315     0.00140035     0.00261391    -0.00063521
H         1.04664149    -0.74554719    -0.31884825     0.00181526    -0.00320652    -0.00083521
     6
  Step:     6            Position(A)                                  Velocity(au)
C        -0.69079180    -0.00155284     0.00093056     0.00023820    -0.00017494     0.00010393
C         0.66023630     0.00032654     0.00124179    -0.00030342     0.00003514     0.00014005
H        -1.05119611     0.75834207    -0.33244356    -0.00201671     0.00410859    -0.00108178
H        -1.24206641    -0.73768885    -0.34409422    -0.00097209    -0.00176304    -0.00013687
H         1.04783860     0.77903555    -0.32926065     0.00164326     0.00305777    -0.00073067
H         1.05204327    -0.75507613    -0.32131370     0.00212264    -0.00373742    -0.00095795
     6
  Step:     7            Position(A)                                  Velocity(au)
C        -0.69009651    -0.00205954     0.00123073     0.00026851    -0.00019376     0.00011432
C         0.65934988     0.00042692     0.00164746    -0.00034272     0.00003769     0.00015509
H        -1.05708793     0.77033209    -0.33557318    -0.00227844     0.00462995    -0.00119476
H        -1.24491840    -0.74286889    -0.34448298    -0.00110864    -0.00201755    -0.00014446
H         1.05265263     0.78797927    -0.33137936     0.00186801     0.00346332    -0.00081102
H         1.05825068    -0.76598802    -0.32408748     0.00240341    -0.00421597    -0.00105998
     6
  Step:     8            Position(A)                                  Velocity(au)
C        -0.68932327    -0.00261256     0.00155578     0.00029512    -0.00020880     0.00012208
C         0.65836188     0.00053268     0.00209000    -0.00037758     0.00003908     0.00016696
H        -1.06365742     0.78366435    -0.33897795    -0.00251183     0.00508924    -0.00128278
H        -1.24812984    -0.74872327    -0.34488431    -0.00123450    -0.00225546    -0.00014581
H         1.05805518     0.79797721    -0.33369631     0.00207309     0.00382764    -0.00087529
H         1.06518807    -0.77813423    -0.32711096     0.00265588    -0.00463908    -0.00114027
     6
  Step:     9            Position(A)                                  Velocity(au)
C        -0.68848243    -0.00320149     0.00189840     0.00031789    -0.00022007     0.00012718
C         0.65728479     0.00064066     0.00256058    -0.00040782     0.00003935     0.00017560
H        -1.07082573     0.79816628    -0.34258898    -0.00271633     0.00548533    -0.00134580
H        -1.25167014    -0.75520451    -0.34528047    -0.00134880    -0.00247540    -0.00014051
H         1.06399081     0.80891349    -0.33616652     0.00225755     0.00414899    -0.00092298
H         1.07277629    -0.79136020    -0.33032385     0.00287918    -0.00500542    -0.00119857
     6
  Step:    10            Position(A)                                  Velocity(au)
C        -0.68758464    -0.00381618     0.00225133     0.00033677    -0.00022774     0.00012965
C         0.65613141     0.00074789     0.00305037    -0.00043337     0.00003858     0.00018104
H        -1.07851363     0.81366489    -0.34633841    -0.00289215     0.00581893    -0.00138454
H        -1.25550673    -0.76226181    -0.34565277    -0.00145093    -0.00267633    -0.00012827
H         1.07040222     0.82066896    -0.33874431     0.00242095     0.00442669    -0.00095406
H         1.08093498    -0.80551003    -0.33366619     0.00307324    -0.00531524    -0.00123529
     6
  Step:    11            Position(A)                                  Velocity(au)
C        -0.68664058    -0.00444705     0.00260748     0.00035177    -0.00023206     0.00012960
C         0.65491460     0.00085166     0.00355072    -0.00045426     0.00003689     0.00018339
H        -1.08664357     0.82999133    -0.35016134    -0.00304023     0.00609220    -0.00140035
H        -1.25960562    -0.76984198    -0.34598203    -0.00154048    -0.00285751    -0.00010899
H         1.07723156     0.83312406    -0.34138450     0.00256333     0.00466104    -0.00096889
H         1.08958456    -0.82043047    -0.33707992     0.00323866    -0.00557011    -0.00125139
     6
  Step:    12            Position(A)                                  Velocity(au)
C        -0.68566074    -0.00508534     0.00296014     0.00036299    -0.00023334     0.00012718
C         0.65364697     0.00094964     0.00405337    -0.00047061     0.00003441     0.00018283
H        -1.09514137     0.84698453    -0.35399725    -0.00316202     0.00630847    -0.00139503
H        -1.26393195    -0.77789019    -0.34624884    -0.00161722    -0.00301850    -0.00008264
H         1.08442164     0.84616124    -0.34404339     0.00268509     0.00485316    -0.00096817
H         1.09864794    -0.83597426    -0.34051031     0.00337658    -0.00577268    -0.00124824
     6
  Step:    13            Position(A)                                  Velocity(au)
C        -0.68465529    -0.00572325     0.00330304     0.00037058    -0.00023197     0.00012257
C         0.65234071     0.00103988     0.00455066    -0.00048262     0.00003130     0.00017958
H        -1.10393739     0.86449380    -0.35779107    -0.00325933     0.00647186    -0.00137066
H        -1.26845055    -0.78635083    -0.34643401    -0.00168114    -0.00315914    -0.00004936
H         1.09191692     0.85966710    -0.34667963     0.00278698     0.00500484    -0.00095285
H         1.10805184    -0.85200258    -0.34390684     0.00348856    -0.00592634    -0.00122751
     6
  Step:    14            Position(A)                                  Velocity(au)
C        -0.68363395    -0.00635402     0.00363049     0.00037472    -0.00022832     0.00011598
C         0.65100741     0.00112081     0.00503552    -0.00049052     0.00002768     0.00017388
H        -1.11296740     0.88238061    -0.36149369    -0.00333422     0.00658699    -0.00132947
H        -1.27312646    -0.79516827    -0.34651882    -0.00173238    -0.00327955    -0.00000938
H         1.09966425     0.87353384    -0.34925476     0.00286999     0.00511836    -0.00092408
H         1.11772769    -0.86838679    -0.34722385     0.00357645    -0.00603502    -0.00119103
     6
  Step:    15            Position(A)                                  Velocity(au)
C        -0.68260587    -0.00697197     0.00393735     0.00037562    -0.00022278     0.00010762
C         0.64965796     0.00119128     0.00550164    -0.00049458     0.00002371     0.00016601
H        -1.12217299     0.90051956    -0.36506225    -0.00338885     0.00665871    -0.00127373
H        -1.27792533    -0.80428743    -0.34648530    -0.00177124    -0.00338003     0.00003700
H         1.10761354     0.88766057    -0.35173366     0.00293530     0.00519635    -0.00088312
H         1.12761227    -0.88500948    -0.35042086     0.00364226    -0.00610290    -0.00114071
     6
  Step:    16            Position(A)                                  Velocity(au)
C        -0.68157960    -0.00757246     0.00421910     0.00037351    -0.00021573     0.00009772
C         0.64830246     0.00125048     0.00594344    -0.00049509     0.00001951     0.00015622
H        -1.13150178     0.91879860    -0.36846004    -0.00342539     0.00669183    -0.00120564
H        -1.28281377    -0.81365440    -0.34631645    -0.00179813    -0.00346109     0.00008939
H         1.11571810     0.90195388    -0.35408477     0.00298421     0.00524164    -0.00083128
H         1.13764805    -0.90176493    -0.35346264     0.00368806    -0.00613422    -0.00107843
     6
  Step:    17            Position(A)                                  Velocity(au)
C        -0.68056306    -0.00815182     0.00447179     0.00036862    -0.00020749     0.00008647
C         0.64695020     0.00129797     0.00635606    -0.00049235     0.00001518     0.00014479
H        -1.14090724     0.93711872    -0.37165619    -0.00344594     0.00669100    -0.00112725
H        -1.28775971    -0.82321694    -0.34599640    -0.00181356    -0.00352341     0.00014735
H         1.12393485     0.91632827    -0.35628011     0.00301803     0.00525711    -0.00076986
H         1.14778314    -0.91855893    -0.35631903     0.00371590    -0.00613311    -0.00100599
     6
  Step:    18            Position(A)                                  Velocity(au)
C        -0.67956354    -0.00870728     0.00469204     0.00036117    -0.00019838     0.00007409
C         0.64560967     0.00133352     0.00673533    -0.00048666     0.00001083     0.00013196
H        -1.15034839     0.95539319    -0.37462522    -0.00345243     0.00666050    -0.00104042
H        -1.29273255    -0.83292473    -0.34551054    -0.00181812    -0.00356775     0.00021041
H         1.13222442     0.93070623    -0.35829530     0.00303813     0.00524565    -0.00070014
H         1.15797116    -0.93530832    -0.35896464     0.00372772    -0.00610348    -0.00092507
     6
  Step:    19            Position(A)                                  Velocity(au)
C        -0.67858772    -0.00923683     0.00487698     0.00035139    -0.00018866     0.00006074
C         0.64428856     0.00135719     0.00707775    -0.00047829     0.00000652     0.00011795
H        -1.15978934     0.97354652    -0.37734646    -0.00344662     0.00660423    -0.00094679
H        -1.29770342    -0.84272977    -0.34484559    -0.00181244    -0.00359498     0.00027807
H         1.14055105     0.94501796    -0.36010934     0.00304578     0.00521001    -0.00062333
H         1.16817092    -0.95194025    -0.36137843     0.00372536    -0.00604891    -0.00083716
     6
  Step:    20            Position(A)                                  Velocity(au)
C        -0.67764170    -0.00973910     0.00502421     0.00006643    -0.00003494     0.00000912
C         0.64299382     0.00136919     0.00738041    -0.00009149     0.00000045     0.00002015
H        -1.16919875     0.99151323    -0.37980341    -0.00067124     0.00127702    -0.00016591
H        -1.30264521    -0.85258648    -0.34398968    -0.00035170    -0.00070567     0.00006846
H         1.14888249     0.95920099    -0.36170441     0.00059534     0.00100836    -0.00010578
H         1.17834599    -0.96839120    -0.36354326     0.00072611    -0.00116880    -0.00014552
     6
  Step:    21            Position(A)                                  Velocity(au)
C        -0.67747770    -0.00982058     0.00502930     0.00005334    -0.00002464    -0.00000546
C         0.64275996     0.00136476     0.00741444    -0.00007935    -0.00000367     0.00000467
H        -1.17100489     0.99488370    -0.38011851    -0.00064883     0.00118623    -0.00006419
H        -1.30357979    -0.85452052    -0.34370173    -0.00033098    -0.00070736     0.00014246
H         1.15049841     0.96186632    -0.36187674     0.00058554     0.00093918    -0.00001981
H         1.18030318    -0.97146933    -0.36380985     0.00070427    -0.00108068    -0.00004906
     6
  Step:    22            Position(A)                                  Velocity(au)
C        -0.67735000    -0.00987384     0.00499437     0.00003991    -0.00001431    -0.00002013
C         0.64255983     0.00134909     0.00740593    -0.00006685    -0.00000777    -0.00001094
H        -1.17274733     0.99800099    -0.38015446    -0.00062475     0.00109203     0.00003816
H        -1.30445541    -0.85645521    -0.34321052    -0.00030864    -0.00070621     0.00021706
H         1.15208494     0.96433757    -0.36181276     0.00057393     0.00086658     0.00006696
H         1.18219783    -0.97430169    -0.36381159     0.00068046    -0.00098925     0.00004810
     6
  Step:    23            Position(A)                                  Velocity(au)
C        -0.67725943    -0.00989886     0.00491919     0.00002621    -0.00000399    -0.00003489
C         0.64239436     0.00132227     0.00735459    -0.00005403    -0.00001183    -0.00002665
H        -1.17442177     1.00085625    -0.37990978    -0.00059917     0.00099476     0.00014097
H        -1.30526780    -0.85838294    -0.34251455    -0.00028479    -0.00070234     0.00029216
H         1.15363735     0.96660586    -0.36151050     0.00056066     0.00079091     0.00015438
H         1.18402476    -0.97687974    -0.36354678     0.00065483    -0.00089486     0.00014579
     6
  Step:    24            Position(A)                                  Velocity(au)
C        -0.67720667    -0.00989565     0.00480356     0.00001228     0.00000633    -0.00004970
C         0.64226434     0.00128439     0.00726018    -0.00004095    -0.00001585    -0.00004243
H        -1.17602433     1.00344158    -0.37938347    -0.00057226     0.00089479     0.00024406
H        -1.30601300    -0.86029649    -0.34161263    -0.00025956    -0.00069592     0.00036764
H         1.15515130     0.96866326    -0.36096841     0.00054588     0.00071250     0.00024229
H         1.18577925    -0.97919589    -0.36301421     0.00062757    -0.00079788     0.00024385
     6
  Step:    25            Position(A)                                  Velocity(au)
C        -0.67719229    -0.00986425     0.00464735    -0.00000183     0.00001661    -0.00006455
C         0.64217042     0.00123557     0.00712255    -0.00002766    -0.00001984    -0.00005825
H        -1.17755160     1.00575005    -0.37857497    -0.00054417     0.00079243     0.00034727
H        -1.30668739    -0.86218906    -0.34050385    -0.00023307    -0.00068708     0.00044340
H         1.15662289     0.97050271    -0.36018535     0.00052975     0.00063168     0.00033053
H         1.18745708    -0.98124351    -0.36221309     0.00059884    -0.00069864     0.00034212
     6
  Step:    26            Position(A)                                  Velocity(au)
C        -0.67721668    -0.00980478     0.00445050    -0.00001606     0.00002686    -0.00007942
C         0.64211308     0.00117590     0.00694161    -0.00001421    -0.00002378    -0.00007409
H        -1.17900055     1.00777556    -0.37748418    -0.00051506     0.00068801     0.00045044
H        -1.30728770    -0.86405427    -0.33918760    -0.00020544    -0.00067598     0.00051932
H         1.15804861     0.97211807    -0.35916064     0.00051240     0.00054877     0.00041896
H         1.18905444    -0.98301690    -0.36114307     0.00056880    -0.00059748     0.00044044
     6
  Step:    27            Position(A)                                  Velocity(au)
C        -0.67728011    -0.00971737     0.00421300    -0.00003036     0.00003704    -0.00009427
C         0.64209269     0.00110552     0.00671735    -0.00000067    -0.00002768    -0.00008992
H        -1.18036856     1.00951291    -0.37611140    -0.00048505     0.00058183     0.00055343
H        -1.30781101    -0.86588616    -0.33766357    -0.00017682    -0.00066279     0.00059530
H         1.15942535     0.97350405    -0.35789399     0.00049400     0.00046408     0.00050741
H         1.19056798    -0.98451125    -0.35980420     0.00053761    -0.00049472     0.00053867
     6
  Step:    28            Position(A)                                  Velocity(au)
C        -0.67738272    -0.00960220     0.00393491    -0.00004469     0.00004716    -0.00010909
C         0.64210943     0.00102453     0.00644982     0.00001292    -0.00003153    -0.00010572
H        -1.18165342     1.01095775    -0.37445736    -0.00045431     0.00047422     0.00065607
H        -1.30825475    -0.86767920    -0.33593175    -0.00014731    -0.00064765     0.00067124
H         1.16075038     0.97465624    -0.35638551     0.00047467     0.00037793     0.00059574
H         1.19199477    -0.98572263    -0.35819697     0.00050543    -0.00039068     0.00063664
     6
  Step:    29            Position(A)                                  Velocity(au)
C        -0.67752450    -0.00945946     0.00361635    -0.00005898     0.00005719    -0.00012386
C         0.64216337     0.00093307     0.00613915     0.00002651    -0.00003534    -0.00012146
H        -1.18285328     1.01210653    -0.37252321    -0.00042296     0.00036547     0.00075822
H        -1.30861670    -0.86942832    -0.33399242    -0.00011707    -0.00063074     0.00074701
H         1.16202140     0.97557105    -0.35463573     0.00045455     0.00029063     0.00068382
H         1.19333230    -0.98664799    -0.35632225     0.00047241    -0.00028569     0.00073423
     6
  Step:    30            Position(A)                                  Velocity(au)
C        -0.67770531    -0.00928942     0.00325749    -0.00007320     0.00006713    -0.00013856
C         0.64225443     0.00083124     0.00578552     0.00004004    -0.00003910    -0.00013712
H        -1.18396671     1.01295656    -0.37031048    -0.00039116     0.00025587     0.00085974
H        -1.30889501    -0.87112889    -0.33184616    -0.00008621    -0.00061223     0.00082252
H         1.16323644     0.97624576    -0.35264555     0.00043380     0.00020248     0.00077149
H         1.19457849    -0.98728512    -0.35418131     0.00043870    -0.00018004     0.00083128
     6
  Step:    31            Position(A)                                  Velocity(au)
C        -0.67792487    -0.00909233     0.00285856    -0.00008730     0.00007696    -0.00015316
C         0.64238238     0.00071920     0.00538918     0.00005347    -0.00004282    -0.00015268
H        -1.18499263     1.01350596    -0.36782109    -0.00035904     0.00014574     0.00096049
H        -1.30908818    -0.87277674    -0.32949386    -0.00005487    -0.00059228     0.00089766
H         1.16439394     0.97667846    -0.35041625     0.00041254     0.00011379     0.00085863
H         1.19573167    -0.98763268    -0.35177579     0.00040446    -0.00007406     0.00092766
     6
  Step:    32            Position(A)                                  Velocity(au)
C        -0.67818277    -0.00886852     0.00241984    -0.00010122     0.00008667    -0.00016764
C         0.64254686     0.00059706     0.00495046     0.00006674    -0.00004648    -0.00016812
H        -1.18593035     1.01375367    -0.36505734    -0.00032673     0.00003538     0.00106032
H        -1.30919509    -0.87436817    -0.32693667    -0.00002318    -0.00057105     0.00097231
H         1.16549273     0.97686810    -0.34794951     0.00039093     0.00002486     0.00094509
H         1.19679059    -0.98769017    -0.34910774     0.00036984     0.00003195     0.00102322
     6
  Step:    33            Position(A)                                  Velocity(au)
C        -0.67847844    -0.00861831     0.00194167    -0.00011491     0.00009625    -0.00018200
C         0.64274738     0.00046496     0.00446972     0.00007979    -0.00005010    -0.00018340
H        -1.18677960     1.01369946    -0.36202194    -0.00029439    -0.00007492     0.00115910
H        -1.30921496    -0.87589994    -0.32417607     0.00000872    -0.00054872     0.00104638
H         1.16653201     0.97681441    -0.34524736     0.00036909    -0.00006401     0.00103074
H         1.19775441    -0.98745794    -0.34617955     0.00033499     0.00013767     0.00111784
     6
  Step:    34            Position(A)                                  Velocity(au)
C        -0.67881122    -0.00834208     0.00142446    -0.00012833     0.00010569    -0.00019619
C         0.64298328     0.00032305     0.00394741     0.00009259    -0.00005366    -0.00019851
H        -1.18754046     1.01334393    -0.35871795    -0.00026216    -0.00018484     0.00125669
H        -1.30914737    -0.87736925    -0.32121377     0.00004072    -0.00052546     0.00111977
H         1.16751136     0.97651800    -0.34231218     0.00034717    -0.00015251     0.00111544
H         1.19862272    -0.98693721    -0.34299400     0.00030007     0.00024279     0.00121138
     6
  Step:    35            Position(A)                                  Velocity(au)
C        -0.67918028    -0.00804025     0.00086866    -0.00014142     0.00011498    -0.00021021
C         0.64325379     0.00017147     0.00338403     0.00010508    -0.00005717    -0.00021343
H        -1.18821344     1.01268854    -0.35514882    -0.00023019    -0.00029406     0.00135295
H        -1.30899227    -0.87877380    -0.31805179     0.00007266    -0.00050144     0.00119237
H         1.16843076     0.97598028    -0.33914675     0.00032531    -0.00024034     0.00119908
H         1.19939555    -0.98613005    -0.33955424     0.00026524     0.00034699     0.00130370
     6
  Step:    36            Position(A)                                  Velocity(au)
C        -0.67958468    -0.00771325     0.00027477    -0.00015415     0.00012409    -0.00022404
C         0.64355799     0.00001038     0.00278013     0.00011721    -0.00006062    -0.00022813
H        -1.18879943     1.01173563    -0.35131838    -0.00019863    -0.00040227     0.00144774
H        -1.30874996    -0.88011173    -0.31469241     0.00010444    -0.00047682     0.00126409
H         1.16929058     0.97520351    -0.33575416     0.00030367    -0.00032719     0.00128151
H         1.20007337    -0.98503945    -0.33586377     0.00023066     0.00044993     0.00139467
     6
  Step:    37            Position(A)                                  Velocity(au)
C        -0.68002335    -0.00736157    -0.00035664    -0.00016646     0.00013302    -0.00023765
C         0.64389484    -0.00016006     0.00213634     0.00012893    -0.00006401    -0.00024259
H        -1.18929979     1.01048841    -0.34723081    -0.00016763    -0.00050914     0.00154093
H        -1.30842107    -0.88138163    -0.31113817     0.00013592    -0.00045177     0.00133484
H         1.17009159     0.97419079    -0.33213787     0.00028238    -0.00041275     0.00136262
H         1.20065709    -0.98366927    -0.33192648     0.00019650     0.00055128     0.00148415
     6
  Step:    38            Position(A)                                  Velocity(au)
C        -0.68049508    -0.00698573    -0.00102497    -0.00017831     0.00014175    -0.00025102
C         0.64426315    -0.00033968     0.00145335     0.00014019    -0.00006733    -0.00025679
H        -1.18971626     1.00895104    -0.34289070    -0.00013737    -0.00061431     0.00163237
H        -1.30800660    -0.88258258    -0.30739186     0.00016697    -0.00042647     0.00140452
H         1.17083498     0.97294610    -0.32830167     0.00026160    -0.00049669     0.00144228
H         1.20114809    -0.98202434    -0.32774660     0.00016294     0.00065070     0.00157202
     6
  Step:    39            Position(A)                                  Velocity(au)
C        -0.68099855    -0.00658632    -0.00172954    -0.00018965     0.00015025    -0.00026415
C         0.64466160    -0.00052829     0.00073188     0.00015095    -0.00007058    -0.00027072
H        -1.19005108     1.00712862    -0.33830299    -0.00010800    -0.00071743     0.00172194
H        -1.30750787    -0.88371409    -0.30345652     0.00019748    -0.00040107     0.00147305
H         1.17152235     0.97147427    -0.32424971     0.00024149    -0.00057871     0.00152037
H         1.20154826    -0.98011042    -0.32332874     0.00013016     0.00074784     0.00165814
     6
  Step:    40            Position(A)                                  Velocity(au)
C        -0.68153231    -0.00616396    -0.00246965    -0.00012354     0.00009771    -0.00017073
C         0.64508873    -0.00072571    -0.00002726     0.00009932    -0.00004546    -0.00017525
H        -1.19030696     1.00502725    -0.33347303    -0.00004914    -0.00050425     0.00111528
H        -1.30692656    -0.88477613    -0.29933542     0.00014011    -0.00023159     0.00094939
H         1.17215573     0.96978102    -0.31998643     0.00013695    -0.00040585     0.00098417
H         1.20185997    -0.97793425    -0.31867787     0.00006061     0.00051917     0.00107392
     6
  Step:    41            Position(A)                                  Velocity(au)
C        -0.68188449    -0.00588563    -0.00295392    -0.00013384     0.00010577    -0.00018335
C         0.64537389    -0.00085434    -0.00052492     0.00010904    -0.00004858    -0.00018861
H        -1.19040346     1.00351243    -0.33030490    -0.00002189    -0.00060268     0.00120110
H        -1.30650312    -0.88537491    -0.29664806     0.00016931    -0.00020645     0.00101561
H         1.17250447     0.96856377    -0.31719184     0.00011843    -0.00048352     0.00105910
H         1.20198292    -0.97638729    -0.31562727     0.00002971     0.00061121     0.00115655
     6
  Step:    42            Position(A)                                  Velocity(au)
C        -0.68226431    -0.00558547    -0.00347244    -0.00014373     0.00011366    -0.00019577
C         0.64568508    -0.00099143    -0.00105883     0.00011833    -0.00005166    -0.00020176
H        -1.19042668     1.00173104    -0.32690396     0.00000440    -0.00069903     0.00128546
H        -1.30600056    -0.88590527    -0.29378082     0.00019791    -0.00018163     0.00108092
H         1.17280346     0.96713651    -0.31419397     0.00010065    -0.00055929     0.00113279
H         1.20202247    -0.97459139    -0.31235245    -0.00000030     0.00070106     0.00123782
     6
  Step:    43            Position(A)                                  Velocity(au)
C        -0.68267059    -0.00526397    -0.00402465    -0.00015317     0.00012136    -0.00020798
C         0.64602108    -0.00113685    -0.00162837     0.00012716    -0.00005467    -0.00021466
H        -1.19037941     0.99968926    -0.32327442     0.00002957    -0.00079294     0.00136823
H        -1.30542071    -0.88636828    -0.29073625     0.00022578    -0.00015728     0.00114526
H         1.17305496     0.96550487    -0.31099633     0.00008378    -0.00063285     0.00120514
H         1.20198127    -0.97255304    -0.30885733    -0.00002926     0.00078835     0.00131761
     6
  Step:    44            Position(A)                                  Velocity(au)
C        -0.68310203    -0.00492171    -0.00460994    -0.00016211     0.00012885    -0.00021996
C         0.64638057    -0.00129043    -0.00223286     0.00013549    -0.00005762    -0.00022730
H        -1.19026495     0.99739426    -0.31942082     0.00005345    -0.00088404     0.00144926
H        -1.30476571    -0.88676545    -0.28751714     0.00025281    -0.00013356     0.00120854
H         1.17326167     0.96367529    -0.30760276     0.00006796    -0.00070390     0.00127604
H         1.20186246    -0.97027971    -0.30514615    -0.00005696     0.00087273     0.00139577
     6