|===============================================================================
|
|  DFTB+ release 19.1
|
|  Copyright (C) 2006 - 2019  DFTB+ developers group
|
|===============================================================================
|
|  When publishing results obtained with DFTB+, please cite the following
|  reference:
|
|  * B. Aradi, B. Hourahine and T. Frauenheim,
|    DFTB+, a Sparse Matrix-Based Implementation of the DFTB Method,
|    J. Phys. Chem. A, 111 5678 (2007).  [doi: 10.1021/jp070186p]
|
|  You should also cite additional publications crediting the parametrization
|  data you use. Please consult the documentation of the SK-files for the
|  references.
|
|===============================================================================

Reading input file 'dftb_in.hsd'
Parser version: 7

--------------------------------------------------------------------------------
Reading SK-files:
Done.


Processed input in HSD format written to 'dftb_pin.hsd'

Starting initialization...
--------------------------------------------------------------------------------
OpenMP threads:              1
Chosen random seed:          1420398146
Mode:                        Static calculation
Self consistent charges:     Yes
SCC-tolerance:                 0.100000E-05
Max. scc iterations:                  10000
Shell resolved Hubbard:      No
On-site corrections:              Yes
Spin polarisation:           No
Nr. of up electrons:             6.000000
Nr. of down electrons:           6.000000
Periodic boundaries:         No
Electronic solver:           Relatively robust
Maximal SCC-cycles:                   10000
Electronic temperature:        0.100000E-07 H      0.272114E-06 eV
Initial charges:             Set automatically (system chrg:   0.000E+00)
Included shells:             C:  s, p
                             H:  s
Spin coupling constants:     C   1(s)-1(s):  -0.310000E-01
                             C   1(s)-2(p):  -0.250000E-01
                             C   2(p)-1(s):  -0.250000E-01
                             C   2(p)-2(p):  -0.230000E-01
                             H   1(s)-1(s):  -0.720000E-01
Extra options:
                             Mulliken analysis
                             Force calculation
Force type                   original
                             Eigenvector printing
On-site coupling constants:   Cuu:  1(s)-1(s):   0.000000E+00
                              Cuu:  1(s)-2(p):   0.497300E-01
                              Cuu:  2(p)-1(s):   0.497300E-01
                              Cuu:  2(p)-2(p):  -0.120300E-01
                              Cud:  1(s)-1(s):   0.000000E+00
                              Cud:  1(s)-2(p):   0.105120E+00
                              Cud:  2(p)-1(s):   0.105120E+00
                              Cud:  2(p)-2(p):   0.264300E-01
                              Huu:  1(s)-1(s):   0.000000E+00
                              Hud:  1(s)-1(s):   0.000000E+00
 
 
REKS Calcuation:             Yes
SSR(2,2) Calcuation:         Yes
Energy Functional:           (PPS+OSS)/2
Number of States:                         2
State-Averaging Weight:          0.500000
                                 0.500000
State of Interest:                        2
Newton-Raphson for FON opt:  Yes
NR max. Iterations:                      50
Level Shifting:              Yes
Shift Value:                     1.000000
W scale factor:              C  =    1.000000
                             H  =    1.000000
Gradient of Microstate:      No
CP-REKS Solver:              Preconditioned Conjugate-Gradient
CG max. Iterations:                     100
CG Tolerance:                  0.100000E-07
Non-Adiabatic Coupling:      Yes
 
 Warning! REKS calculation is not affected by,
          (mixer, filling) option.
 

--------------------------------------------------------------------------------

***  Geometry step: 0

 
 number of core 5
 number of active 2
 nEl 12.0000000000000
 nAOs 12
 super_N 46
 sparse elements 90
 
  iSCC       reks energy        Diff energy         x_a        Time(s)         SCC error   
    1       -5.7479575525       0.0000000000     0.999972     0.005011       1.1144343672
    2       -5.7511481362      -0.0031905837     0.999992     0.001520       0.0263535672
    3       -5.7526770767      -0.0015289405     0.999997     0.001479       0.0163855478
    4       -5.7535015535      -0.0008244768     0.999999     0.001490       0.0102877408
    5       -5.7539968911      -0.0004953376     0.999999     0.001473       0.0065167367
    6       -5.7543213045      -0.0003244134     1.000000     0.001473       0.0041601843
    7       -5.7545473786      -0.0002260740     1.000000     0.001458       0.0036513211
    8       -5.7547116641      -0.0001642855     1.000000     0.001480       0.0033128991
    9       -5.7548343839      -0.0001227198     1.000000     0.001457       0.0030382377
   10       -5.7549277337      -0.0000933498     1.000000     0.001466       0.0027696530
   11       -5.7549996148      -0.0000718811     1.000000     0.001466       0.0025140447
   12       -5.7550554358      -0.0000558211     1.000000     0.001465       0.0022749860
   13       -5.7550990512      -0.0000436153     1.000000     0.001476       0.0020540176
   14       -5.7551332868      -0.0000342356     1.000000     0.001461       0.0018514432
   15       -5.7551602569      -0.0000269701     1.000000     0.001456       0.0016668257
   16       -5.7551815656      -0.0000213087     1.000000     0.001461       0.0014992998
   17       -5.7551984430      -0.0000168774     1.000000     0.001458       0.0013477706
   18       -5.7552118393      -0.0000133963     1.000000     0.001465       0.0012110392
   19       -5.7552224929      -0.0000106536     1.000000     0.001462       0.0010878824
   20       -5.7552309802      -0.0000084873     1.000000     0.001477       0.0009771015
   21       -5.7552377527      -0.0000067725     1.000000     0.001457       0.0008775520
   22       -5.7552431651      -0.0000054125     1.000000     0.001463       0.0007881602
   23       -5.7552474971      -0.0000043319     1.000000     0.001456       0.0007079306
   24       -5.7552509691      -0.0000034721     1.000000     0.001457       0.0006359491
   25       -5.7552537559      -0.0000027867     1.000000     0.001461       0.0005713813
   26       -5.7552559956      -0.0000022397     1.000000     0.001467       0.0005134697
   27       -5.7552577980      -0.0000018025     1.000000     0.001463       0.0004615292
   28       -5.7552592505      -0.0000014525     1.000000     0.001450       0.0004149418
   29       -5.7552604224      -0.0000011719     1.000000     0.001452       0.0003731515
   30       -5.7552613692      -0.0000009468     1.000000     0.001457       0.0003356588
   31       -5.7552621351      -0.0000007659     1.000000     0.001458       0.0003020156
   32       -5.7552627554      -0.0000006203     1.000000     0.001455       0.0002718203
   33       -5.7552632584      -0.0000005030     1.000000     0.001470       0.0002447132
   34       -5.7552636667      -0.0000004083     1.000000     0.001451       0.0002203724
   35       -5.7552639986      -0.0000003319     1.000000     0.001456       0.0001985098
   36       -5.7552642687      -0.0000002701     1.000000     0.001446       0.0001788676
   37       -5.7552644887      -0.0000002200     1.000000     0.001463       0.0001612154
   38       -5.7552646682      -0.0000001794     1.000000     0.001440       0.0001453469
   39       -5.7552648147      -0.0000001465     1.000000     0.001456       0.0001310778
   40       -5.7552649344      -0.0000001197     1.000000     0.001471       0.0001182430
   41       -5.7552650323      -0.0000000980     1.000000     0.001463       0.0001066949
   42       -5.7552651126      -0.0000000802     1.000000     0.001461       0.0000963015
   43       -5.7552651783      -0.0000000658     1.000000     0.001468       0.0000869444
   44       -5.7552652323      -0.0000000539     1.000000     0.001458       0.0000785179
   45       -5.7552652766      -0.0000000443     1.000000     0.001465       0.0000709271
   46       -5.7552653130      -0.0000000364     1.000000     0.001453       0.0000640871
   47       -5.7552653429      -0.0000000300     1.000000     0.001482       0.0000579219
   48       -5.7552653676      -0.0000000247     1.000000     0.001459       0.0000523633
   49       -5.7552653879      -0.0000000203     1.000000     0.001464       0.0000473502
   50       -5.7552654047      -0.0000000167     1.000000     0.001456       0.0000428277
   51       -5.7552654185      -0.0000000138     1.000000     0.001450       0.0000387467
   52       -5.7552654299      -0.0000000114     1.000000     0.001456       0.0000350631
   53       -5.7552654393      -0.0000000094     1.000000     0.001455       0.0000317372
   54       -5.7552654471      -0.0000000078     1.000000     0.001465       0.0000287336
   55       -5.7552654535      -0.0000000064     1.000000     0.001451       0.0000260202
   56       -5.7552654589      -0.0000000053     1.000000     0.001458       0.0000235683
   57       -5.7552654633      -0.0000000044     1.000000     0.001456       0.0000213522
   58       -5.7552654669      -0.0000000037     1.000000     0.001463       0.0000193488
   59       -5.7552654700      -0.0000000030     1.000000     0.001458       0.0000175370
   60       -5.7552654725      -0.0000000025     1.000000     0.001460       0.0000158982
   61       -5.7552654746      -0.0000000021     1.000000     0.001458       0.0000144156
   62       -5.7552654763      -0.0000000017     1.000000     0.001461       0.0000130738
   63       -5.7552654777      -0.0000000014     1.000000     0.001461       0.0000118593
   64       -5.7552654789      -0.0000000012     1.000000     0.001459       0.0000107597
   65       -5.7552654799      -0.0000000010     1.000000     0.001453       0.0000097638
   66       -5.7552654807      -0.0000000008     1.000000     0.001468       0.0000088618
   67       -5.7552654814      -0.0000000007     1.000000     0.001460       0.0000080446
   68       -5.7552654820      -0.0000000006     1.000000     0.001463       0.0000073041
   69       -5.7552654825      -0.0000000005     1.000000     0.001462       0.0000066328
   70       -5.7552654829      -0.0000000004     1.000000     0.001469       0.0000060243
   71       -5.7552654832      -0.0000000003     1.000000     0.001458       0.0000054725
   72       -5.7552654835      -0.0000000003     1.000000     0.001473       0.0000049721
   73       -5.7552654837      -0.0000000002     1.000000     0.001462       0.0000045181
   74       -5.7552654839      -0.0000000002     1.000000     0.001464       0.0000041063
   75       -5.7552654840      -0.0000000002     1.000000     0.001469       0.0000037325
   76       -5.7552654842      -0.0000000001     1.000000     0.001471       0.0000033933
   77       -5.7552654843      -0.0000000001     1.000000     0.001455       0.0000030853
   78       -5.7552654844      -0.0000000001     1.000000     0.001462       0.0000028057
   79       -5.7552654845      -0.0000000001     1.000000     0.001457       0.0000025518
   80       -5.7552654845      -0.0000000001     1.000000     0.001452       0.0000023211
   81       -5.7552654846      -0.0000000001     1.000000     0.001457       0.0000021116
   82       -5.7552654846      -0.0000000000     1.000000     0.001453       0.0000019213
   83       -5.7552654847      -0.0000000000     1.000000     0.001462       0.0000017483
   84       -5.7552654847      -0.0000000000     1.000000     0.001452       0.0000015911
   85       -5.7552654847      -0.0000000000     1.000000     0.001455       0.0000014482
   86       -5.7552654847      -0.0000000000     1.000000     0.001453       0.0000013182
   87       -5.7552654847      -0.0000000000     1.000000     0.001460       0.0000012001
   88       -5.7552654848      -0.0000000000     1.000000     0.001448       0.0000010927
   89       -5.7552654848      -0.0000000000     1.000000     0.001452       0.0000009950
  
--------------------------------------------------
 Final SA-REKS(2,2) energy:      -5.75526548
  
 State     Energy      FON(1)    FON(2)   Spin
  PPS   -5.74206335   2.000000  0.000000  0.00
  OSS   -5.76846762   1.000000  1.000000  0.00
 Trip   -5.77326310   1.000000  1.000000  1.00
--------------------------------------------------
  
 Lagrangian Wab:  -0.00919181 -0.00919385
  
--------------------------------------------------
 SSR: 2SI-2SA-REKS(2,2) Hamiltonian matrix
               PPS           OSS
   PPS    -5.74206335   -0.01299793
   OSS    -0.01299793   -5.76846762
--------------------------------------------------
  
----------------------------------------------------------------
 SSR: 2SI-2SA-REKS(2,2) states
                    E_n       C_{PPS}    C_{OSS}
 SSR state  1   -5.77379229   0.379080   0.925364
 SSR state  2   -5.73673868  -0.925364   0.379080
----------------------------------------------------------------
 
 unrelaxed SSR FONs for S1:  1.856298  0.143702
 
Total Energy:                       -5.7367386788 H         -156.1046 eV
Extrapolated to 0:                   0.0000000000 H            0.0000 eV
Total Mermin free energy:            0.0000000000 H            0.0000 eV
Force related energy:                0.0000000000 H            0.0000 eV

 Time - getHellmannFeynmanGradientL =      0.00578499 seconds.
 Time - REKS_getSccSpinLRonSite =      0.00003886 seconds.
current indices:  1    1  2
 Time - get_Z_del_no_Hxc =      0.00091600 seconds.
 Time - REKS_get_Q1_del =      0.00022388 seconds.
 
  CG solver: Y initial guess                            time =       0.00137997
  CG solver: Iteration    1    eps =    0.002344218274  time =       0.00133801
  CG solver: Iteration    2    eps =    0.000151440982  time =       0.00132489
  CG solver: Iteration    3    eps =    0.000003152913  time =       0.00131989
  CG solver: Iteration    4    eps =    0.000000225376  time =       0.00132394
  CG solver: Iteration    5    eps =    0.000000015183  time =       0.00132298
  CG solver: Iteration    6    eps =    0.000000000345  time =       0.00131488
  Convergence reached in CG solver after    6 iterations
  CG solver: converged R, Z, Q2 matrix                  time =       0.00115609
  Time - CG_grad =      0.01059914 seconds.
 
 Time - REKS_get_Q1_mat =      0.00007415 seconds.
 
  CG solver: Y initial guess                            time =       0.00133419
  CG solver: Iteration    1    eps =    0.001323275854  time =       0.00131798
  CG solver: Iteration    2    eps =    0.000852462333  time =       0.00131512
  CG solver: Iteration    3    eps =    0.000011462418  time =       0.00131488
  CG solver: Iteration    4    eps =    0.000000537399  time =       0.00131488
  CG solver: Iteration    5    eps =    0.000000020188  time =       0.00131416
  CG solver: Iteration    6    eps =    0.000000000501  time =       0.00131392
  Convergence reached in CG solver after    6 iterations
  CG solver: converged R, Z, Q2 matrix                  time =       0.00114393
  Time - CG_grad =      0.01048899 seconds.
 
 Time - REKS_get_Q1_mat =      0.00006509 seconds.
 Time - REKS_RT_shift =      0.00910997 seconds.
 
--------------------------------------------------
 Gradient Information
--------------------------------------------------
 1 st state (SSR)
     0.05725823     0.05760355     0.04436369
    -0.07198386    -0.02130177    -0.01315607
    -0.01731035    -0.02111787    -0.00064058
     0.00594459    -0.01767005    -0.04165573
     0.01459086     0.01856949     0.00599160
     0.01150053    -0.01608335     0.00509708

 2 st state (SSR)
     0.01436054     0.01111126     0.01839366
     0.00202476    -0.00598754    -0.01283675
    -0.01130466    -0.01515381    -0.01588292
    -0.01102364     0.00318603     0.00074173
     0.00567328    -0.00028680     0.01464274
     0.00026972     0.00713086    -0.00505846
--------------------------------------------------
 Coupling Information
--------------------------------------------------
 between  1 and  2 states
--------------------------------------------------
 g vector - difference gradient
    -0.03533183    -0.02173139    -0.01379708
     0.05128935     0.00760020     0.00551856
    -0.00779657     0.02505539     0.00818078
     0.00237816    -0.00897325    -0.00274061
    -0.00306305     0.00855317    -0.01140684
    -0.00747606    -0.01050413     0.01424519

 h vector - derivative coupling
    -0.00531446     0.01106146     0.00449456
    -0.00064953    -0.00319459     0.00537769
    -0.01219922     0.02119855     0.01917227
     0.01450849    -0.02397801    -0.03299963
     0.00324423     0.02212612    -0.01775157
     0.00041049    -0.02721354     0.02170668

 G vector - GDV
     0.02144885     0.02324614     0.01298502
    -0.03700431    -0.00765712    -0.00015966
    -0.00300285    -0.00298203     0.00762117
     0.00848411    -0.01042804    -0.02119873
     0.00445879     0.00942815    -0.00432557
     0.00561540    -0.01160710     0.00507777

 H vector - DCV - non-adiabatic coupling
     0.77117877     0.19873415     0.17479716
    -0.95862244    -0.08246576    -0.20790970
     0.38222977    -0.88207935    -0.52360654
    -0.32404824     0.63103278     0.68652315
    -0.00439543    -0.58746440     0.55736679
     0.13365758     0.72224259    -0.68717085
--------------------------------------------------
 
 
--------------------------------------------------------------------------------
DFTB+ running times                          cpu [s]             wall clock [s]
--------------------------------------------------------------------------------
SCC                                    +     0.14  ( 77.2%)      0.14  ( 77.3%)
      Dense to sparse                        0.01  (  7.8%)      0.01  (  7.4%)
      Range separated Hamiltonian            0.01  (  6.4%)      0.01  (  6.6%)
Post-SCC processing                    +     0.04  ( 21.6%)      0.04  ( 21.4%)
  Force calculation                          0.04  ( 21.3%)      0.04  ( 21.0%)
--------------------------------------------------------------------------------
Missing                                +     0.00  (  1.2%)      0.00  (  1.3%)
Total                                  =     0.18  (100.0%)      0.18  (100.0%)
--------------------------------------------------------------------------------
