     9
  Step:  1000            Position(A)                                  Velocity(au)
C         6.92547711     7.73458462     7.45241168     0.00002422     0.00016546    -0.00001862
N         8.06728486     7.15020152     7.50191913     0.00011278    -0.00014632     0.00014606
H         5.92721197     7.31388761     7.36055364    -0.00049909     0.00098536     0.00097975
H         6.87768063     8.82891075     7.28221925     0.00057218    -0.00001697    -0.00162649
H         8.27580111     6.13847109     7.60091988     0.00007196    -0.00064925    -0.00123141
H         8.91974827     7.71726042     7.33433449    -0.00016697     0.00074655     0.00011903
O         8.88963226    10.14620158     7.15461250    -0.00010883    -0.00006265    -0.00007382
H         9.15856536    10.57533239     6.33301502     0.00024504     0.00066668     0.00042333
H         9.20970803    10.76105615     7.82569439    -0.00034361    -0.00070369     0.00064891
