     9
  Step:     0            Position(A)                                  Velocity(au)
C         6.79554999     7.55605723     7.51409468     0.00013271     0.00013888    -0.00009336
N         8.05410625     7.30887334     7.51001345    -0.00018449    -0.00043517    -0.00005298
H         6.39647963     7.93655869     6.56275280    -0.00105895    -0.00041136     0.00057365
H         6.11259940     7.40974363     8.36320140     0.00028111    -0.00043589     0.00071349
H         8.64921781     7.03764388     8.31439330    -0.00051486     0.00088054     0.00049195
H         8.58738296     7.66765418     6.67063625     0.00091084     0.00044118     0.00088032
O         9.05007579    10.16245887     7.03576174     0.00012189     0.00024304    -0.00005104
H         8.95211500    11.11557303     7.04483075    -0.00013367     0.00023902     0.00029662
H         8.83723871     9.88618769     7.92834906    -0.00043007    -0.00017524    -0.00031385
     9
  Step:     1            Position(A)                                  Velocity(au)
C         6.79588309     7.55644219     7.51384127     0.00011075     0.00014270    -0.00009186
N         8.05363724     7.30767793     7.50986605    -0.00015845    -0.00043912    -0.00005485
H         6.39349009     7.93546518     6.56425725    -0.00112736    -0.00038843     0.00052634
H         6.11330872     7.40855259     8.36518717     0.00023849    -0.00043511     0.00073784
H         8.64781025     7.04003796     8.31574463    -0.00051435     0.00087022     0.00049671
H         8.58989084     7.66884780     6.67306973     0.00092291     0.00043170     0.00089942
O         9.05040758    10.16312016     7.03562223     0.00012077     0.00024061    -0.00005099
H         8.95175732    11.11624637     7.04564349    -0.00012791     0.00025331     0.00029776
H         8.83607673     9.88574918     7.92749799    -0.00041977    -0.00014546    -0.00030859
     9
  Step:     2            Position(A)                                  Velocity(au)
C         6.79615570     7.55683767     7.51359229     0.00008850     0.00014657    -0.00009013
N         8.05323966     7.30647170     7.50971347    -0.00013228    -0.00044307    -0.00005678
H         6.39031382     7.93443427     6.56563148    -0.00119540    -0.00036566     0.00047859
H         6.11390375     7.40736390     8.36723682     0.00019756    -0.00043416     0.00076016
H         8.64640470     7.04240333     8.31710990    -0.00051339     0.00085953     0.00050216
H         8.59243058     7.67001524     6.67555537     0.00093416     0.00042205     0.00091843
O         9.05073630    10.16377481     7.03548286     0.00011965     0.00023820    -0.00005094
H         8.95141541    11.11695844     7.04645927    -0.00012212     0.00026728     0.00029882
H         8.83494289     9.88539213     7.92666133    -0.00040949    -0.00011568    -0.00030330
     9
  Step:     3            Position(A)                                  Velocity(au)
C         6.79636711     7.55724381     7.51334832     0.00006601     0.00015049    -0.00008820
N         8.05291377     7.30525465     7.50955552    -0.00010605    -0.00044703    -0.00005877
H         6.38695218     7.93346532     6.56687476    -0.00126281    -0.00034319     0.00043073
H         6.11438922     7.40617805     8.36934464     0.00015840    -0.00043302     0.00078035
H         8.64500239     7.04473895     8.31849104    -0.00051198     0.00084847     0.00050830
H         8.59499996     7.67115608     6.67809285     0.00094461     0.00041226     0.00093729
O         9.05106195    10.16442291     7.03534365     0.00011852     0.00023582    -0.00005087
H         8.95108940    11.11770819     7.04727782    -0.00011628     0.00028080     0.00029978
H         8.83383716     9.88511648     7.92583917    -0.00039922    -0.00008596    -0.00029796
     9
  Step:     4            Position(A)                                  Velocity(au)
C         6.79651673     7.55766073     7.51310990     0.00004333     0.00015445    -0.00008608
N         8.05265963     7.30402681     7.50939206    -0.00007984    -0.00045097    -0.00006081
H         6.38340721     7.93255728     6.56798724    -0.00132936    -0.00032119     0.00038310
H         6.11477006     7.40499560     8.37150471     0.00012105    -0.00043167     0.00079833
H         8.64360456     7.04704381     8.31988993    -0.00051012     0.00083703     0.00051514
H         8.59759689     7.67226997     6.68068162     0.00095433     0.00040235     0.00095591
O         9.05138451    10.16506455     7.03520462     0.00011739     0.00023348    -0.00005081
H         8.95077947    11.11849422     7.04809882    -0.00011035     0.00029376     0.00030059
H         8.83275946     9.88492202     7.92503170    -0.00038898    -0.00005632    -0.00029254
     9
  Step:     5            Position(A)                                  Velocity(au)
C         6.79660411     7.55808855     7.51287754     0.00002052     0.00015846    -0.00008378
N         8.05247713     7.30278822     7.50922292    -0.00005370    -0.00045488    -0.00006292
H         6.37968160     7.93170864     6.56897001    -0.00139481    -0.00029981     0.00033602
H         6.11505130     7.40381714     8.37371091     0.00008558    -0.00043009     0.00081405
H         8.64221241     7.04931687     8.32130848    -0.00050782     0.00082521     0.00052268
H         8.60021940     7.67335665     6.68332094     0.00096335     0.00039236     0.00097422
O         9.05170397    10.16569986     7.03506578     0.00011625     0.00023119    -0.00005073
H         8.95048588    11.11931483     7.04892182    -0.00010432     0.00030603     0.00030123
H         8.83170971     9.88480843     7.92423920    -0.00037878    -0.00002683    -0.00028700
     9
  Step:     6            Position(A)                                  Velocity(au)
C         6.79662895     7.55852737     7.51265168    -0.00000238     0.00016250    -0.00008133
N         8.05236596     7.30153898     7.50904796    -0.00002770    -0.00045875    -0.00006507
H         6.37577866     7.93091752     6.56982503    -0.00145895    -0.00027920     0.00028982
H         6.11523810     7.40264333     8.37595695     0.00005200    -0.00042826     0.00082745
H         8.64082715     7.05155709     8.32274859    -0.00050510     0.00081302     0.00053090
H         8.60286565     7.67441591     6.68600985     0.00097172     0.00038232     0.00099214
O         9.05202032    10.16632899     7.03492716     0.00011511     0.00022897    -0.00005065
H         8.95020892    11.12016799     7.04974631    -0.00009817     0.00031752     0.00030167
H         8.83068784     9.88477526     7.92346204    -0.00036861     0.00000247    -0.00028131
     9
  Step:     7            Position(A)                                  Velocity(au)
C         6.79659108     7.55897728     7.51243272    -0.00002532     0.00016656    -0.00007874
N         8.05232565     7.30027922     7.50886703    -0.00000190    -0.00046257    -0.00006728
H         6.37170227     7.93018166     6.57055508    -0.00152156    -0.00025947     0.00024478
H         6.11533571     7.40147486     8.37823644     0.00002035    -0.00042618     0.00083850
H         8.63944991     7.05376344     8.32421212    -0.00050196     0.00080044     0.00053980
H         8.60553393     7.67544763     6.68874719     0.00097948     0.00037224     0.00100960
O         9.05233355    10.16695213     7.03478877     0.00011396     0.00022681    -0.00005056
H         8.94994897    11.12105139     7.05057170    -0.00009187     0.00032810     0.00030187
H         8.82969371     9.88482193     7.92270065    -0.00035848     0.00003154    -0.00027544
     9
  Step:     8            Position(A)                                  Velocity(au)
C         6.79649048     7.55943834     7.51222103    -0.00004823     0.00017065    -0.00007603
N         8.05235556     7.29900909     7.50868000     0.00002363    -0.00046633    -0.00006953
H         6.36745687     7.92949843     6.57116377    -0.00158248    -0.00024075     0.00020118
H         6.11534940     7.40031246     8.38054289    -0.00000936    -0.00042382     0.00084716
H         8.63808180     7.05593490     8.32570087    -0.00049843     0.00078750     0.00054935
H         8.60822266     7.67645179     6.69153159     0.00098670     0.00036217     0.00102652
O         9.05264362    10.16756949     7.03465062     0.00011281     0.00022474    -0.00005047
H         8.94970644    11.12196246     7.05139729    -0.00008542     0.00033770     0.00030180
H         8.82872723     9.88494775     7.92195558    -0.00034840     0.00006033    -0.00026936
     9
  Step:     9            Position(A)                                  Velocity(au)
C         6.79632727     7.55991059     7.51201688    -0.00007108     0.00017475    -0.00007323
N         8.05245489     7.29772878     7.50848676     0.00004884    -0.00047001    -0.00007182
H         6.36304735     7.92886492     6.57165540    -0.00164153    -0.00022316     0.00015929
H         6.11528450     7.39915690     8.38286976    -0.00003714    -0.00042118     0.00085343
H         8.63672387     7.05807044     8.32721662    -0.00049453     0.00077418     0.00055952
H         8.61093039     7.67742842     6.69436148     0.00099341     0.00035213     0.00104284
O         9.05295052    10.16818129     7.03451273     0.00011164     0.00022276    -0.00005037
H         8.94948181    11.12289835     7.05222231    -0.00007878     0.00034622     0.00030144
H         8.82778824     9.88515190     7.92122744    -0.00033837     0.00008881    -0.00026305
     9
  Step:    10            Position(A)                                  Velocity(au)
C         6.79610172     7.56039408     7.51182053    -0.00009380     0.00017886    -0.00007034
N         8.05262265     7.29643849     7.50828721     0.00007366    -0.00047362    -0.00007414
H         6.35847900     7.92827792     6.57203495    -0.00169858    -0.00020677     0.00011931
H         6.11514628     7.39800894     8.38521050    -0.00006298    -0.00041825     0.00085730
H         8.63537711     7.06016906     8.32876103    -0.00049028     0.00076049     0.00057030
H         8.61365583     7.67837765     6.69723511     0.00099967     0.00034214     0.00105847
O         9.05325422    10.16878779     7.03437512     0.00011047     0.00022087    -0.00005027
H         8.94927560    11.12385602     7.05304592    -0.00007194     0.00035359     0.00030075
H         8.82687660     9.88543345     7.92051693    -0.00032840     0.00011692    -0.00025646
     9
  Step:    11            Position(A)                                  Velocity(au)
C         6.79581424     7.56088879     7.51163217    -0.00011635     0.00018296    -0.00006739
N         8.05285775     7.29513847     7.50808127     0.00009805    -0.00047713    -0.00007649
H         6.35375741     7.92773402     6.57230796    -0.00175355    -0.00019167     0.00008146
H         6.11494003     7.39686939     8.38755856    -0.00008691    -0.00041502     0.00085879
H         8.63404241     7.06222976     8.33033570    -0.00048572     0.00074645     0.00058163
H         8.61639781     7.67929967     6.70015051     0.00100553     0.00033225     0.00107336
O         9.05355469    10.16938926     7.03423780     0.00010928     0.00021908    -0.00005016
H         8.94908838    11.12483222     7.05386718    -0.00006488     0.00035974     0.00029971
H         8.82599214     9.88579135     7.91982481    -0.00031849     0.00014463    -0.00024958
     9
  Step:    12            Position(A)                                  Velocity(au)
C         6.79546538     7.56139473     7.51145195    -0.00013867     0.00018706    -0.00006440
N         8.05315894     7.29382897     7.50786889     0.00012197    -0.00048054    -0.00007884
H         6.34888842     7.92722962     6.57248047    -0.00180636    -0.00017791     0.00004589
H         6.11467095     7.39573908     8.38990743    -0.00010894    -0.00041150     0.00085791
H         8.63272060     7.06425158     8.33194211    -0.00048088     0.00073206     0.00059349
H         8.61915530     7.68019478     6.70310554     0.00101104     0.00032247     0.00108743
O         9.05385191    10.16998599     7.03410080     0.00010809     0.00021740    -0.00005004
H         8.94892076    11.12582353     7.05468510    -0.00005759     0.00036462     0.00029829
H         8.82513468     9.88622445     7.91915191    -0.00030865     0.00017190    -0.00024239
     9
  Step:    13            Position(A)                                  Velocity(au)
C         6.79505583     7.56191186     7.51127997    -0.00016071     0.00019114    -0.00006138
N         8.05352482     7.29251027     7.50765006     0.00014536    -0.00048385    -0.00008120
H         6.34387800     7.92676100     6.57255894    -0.00185698    -0.00016553     0.00001273
H         6.11434419     7.39461882     8.39225066    -0.00012911    -0.00040767     0.00085469
H         8.63141240     7.06623356     8.33358162    -0.00047579     0.00071732     0.00060582
H         8.62192741     7.68106334     6.70609790     0.00101625     0.00031284     0.00110062
O         9.05414585    10.17057828     7.03396411     0.00010688     0.00021584    -0.00004992
H         8.94877340    11.12682638     7.05549859    -0.00005006     0.00036817     0.00029646
H         8.82430403     9.88673150     7.91849913    -0.00029889     0.00019869    -0.00023486
     9
  Step:    14            Position(A)                                  Velocity(au)
C         6.79458641     7.56244012     7.51111627    -0.00018243     0.00019520    -0.00005834
N         8.05395392     7.29118267     7.50742477     0.00016818    -0.00048705    -0.00008355
H         6.33873218     7.92632431     6.57255013    -0.00190539    -0.00015455    -0.00001789
H         6.11396480     7.39350944     8.39458192    -0.00014746    -0.00040353     0.00084917
H         8.63011842     7.06817479     8.33525546    -0.00047049     0.00070226     0.00061856
H         8.62471340     7.68190578     6.70912509     0.00102121     0.00030338     0.00111288
O         9.05443646    10.17116645     7.03382778     0.00010566     0.00021439    -0.00004979
H         8.94864699    11.12783713     7.05630651    -0.00004227     0.00037037     0.00029420
H         8.82350000     9.88731114     7.91786743    -0.00028919     0.00022498    -0.00022697
     9
  Step:    15            Position(A)                                  Velocity(au)
C         6.79405809     7.56297944     7.51096087    -0.00020377     0.00019922    -0.00005532
N         8.05444462     7.28984648     7.50719308     0.00019040    -0.00049013    -0.00008588
H         6.33345699     7.92591571     6.57246107    -0.00195161    -0.00014499    -0.00004592
H         6.11353770     7.39241179     8.39689496    -0.00016402    -0.00039910     0.00084139
H         8.62883917     7.07007436     8.33696468    -0.00046503     0.00068687     0.00063167
H         8.62751264     7.68272262     6.71218450     0.00102597     0.00029413     0.00112415
O         9.05472373    10.17175082     7.03369180     0.00010443     0.00021306    -0.00004965
H         8.94854224    11.12885202     7.05710763    -0.00003421     0.00037119     0.00029148
H         8.82272237     9.88796194     7.91725780    -0.00027958     0.00025071    -0.00021871
     9
  Step:    16            Position(A)                                  Velocity(au)
C         6.79347196     7.56352969     7.51081373    -0.00022469     0.00020320    -0.00005231
N         8.05499524     7.28850204     7.50695506     0.00021198    -0.00049309    -0.00008817
H         6.32805837     7.92553132     6.57229896    -0.00199568    -0.00013685    -0.00007129
H         6.11306773     7.39132669     8.39918366    -0.00017885    -0.00039436     0.00083140
H         8.62757505     7.07193142     8.33871020    -0.00045945     0.00067117     0.00064507
H         8.63032464     7.68351444     6.71527333     0.00103057     0.00028510     0.00113438
O         9.05500761    10.17233174     7.03355621     0.00010318     0.00021186    -0.00004951
H         8.94845991    11.12986727     7.05790068    -0.00002587     0.00037063     0.00028828
H         8.82197093     9.88868236     7.91667127    -0.00027004     0.00027588    -0.00021006
     9
  Step:    17            Position(A)                                  Velocity(au)
C         6.79282922     7.56409077     7.51067479    -0.00024514     0.00020713    -0.00004933
N         8.05560397     7.28714967     7.50671083     0.00023289    -0.00049592    -0.00009042
H         6.32254217     7.92516726     6.57207115    -0.00203763    -0.00013011    -0.00009397
H         6.11255955     7.39025496     8.40144209    -0.00019199    -0.00038932     0.00081927
H         8.62632631     7.07374512     8.34049273    -0.00045380     0.00065517     0.00065871
H         8.63314905     7.68428192     6.71838866     0.00103506     0.00027633     0.00114352
O         9.05528806    10.17290955     7.03342102     0.00010192     0.00021079    -0.00004936
H         8.94840077    11.13087910     7.05868432    -0.00001725     0.00036869     0.00028459
H         8.82124546     9.88947080     7.91610892    -0.00026059     0.00030045    -0.00020103
     9
  Step:    18            Position(A)                                  Velocity(au)
C         6.79213121     7.56466251     7.51054392    -0.00026509     0.00021099    -0.00004640
N         8.05626895     7.28578974     7.50646055     0.00025310    -0.00049862    -0.00009260
H         6.31691410     7.92481970     6.57178503    -0.00207751    -0.00012477    -0.00011392
H         6.11201770     7.38919742     8.40366445    -0.00020351    -0.00038398     0.00080507
H         8.62509310     7.07551468     8.34231281    -0.00044813     0.00063888     0.00067250
H         8.63598561     7.68502578     6.72152747     0.00103948     0.00026784     0.00115152
O         9.05556506    10.17348458     7.03328626     0.00010065     0.00020984    -0.00004920
H         8.94836559    11.13188373     7.05945716    -0.00000833     0.00036538     0.00028037
H         8.82054573     9.89032557     7.91557182    -0.00025121     0.00032439    -0.00019159
     9
  Step:    19            Position(A)                                  Velocity(au)
C         6.79137938     7.56524474     7.51042100    -0.00028449     0.00021479    -0.00004353
N         8.05698823     7.28442260     7.50620439     0.00027259    -0.00050119    -0.00009471
H         6.31117979     7.92448486     6.57144807    -0.00211534    -0.00012081    -0.00013114
H         6.11144653     7.38815487     8.40584517    -0.00021346    -0.00037836     0.00078885
H         8.62387539     7.07723933     8.34417077    -0.00044248     0.00062233     0.00068637
H         8.63883420     7.68574681     6.72468660     0.00104387     0.00025965     0.00115836
O         9.05583856    10.17405719     7.03315195     0.00009937     0.00020901    -0.00004903
H         8.94835519    11.13287744     7.06021773     0.00000087     0.00036073     0.00027562
H         8.81987152     9.89124493     7.91506107    -0.00024192     0.00034768    -0.00018175
     9
  Step:    20            Position(A)                                  Velocity(au)
C         6.79057529     7.56583726     7.51030583    -0.00024364     0.00017553    -0.00003272
N         8.05775979     7.28304863     7.50594258     0.00023402    -0.00040455    -0.00007770
H         6.30534482     7.92415894     6.57106780    -0.00172799    -0.00009498    -0.00011695
H         6.11085024     7.38712808     8.40797886    -0.00017826    -0.00029919     0.00061911
H         8.62267305     7.07891833     8.34606673    -0.00035097     0.00048641     0.00056251
H         8.64169478     7.68644588     6.72786282     0.00084208     0.00020226     0.00093504
O         9.05610852    10.17462772     7.03301813     0.00007878     0.00016734    -0.00003924
H         8.94837035    11.13385662     7.06096456     0.00000833     0.00028499     0.00021714
H         8.81922261     9.89222709     7.91457777    -0.00018694     0.00029746    -0.00013778
     9
  Step:    21            Position(A)                                  Velocity(au)
C         6.78988374     7.56632231     7.51022014    -0.00026188     0.00017917    -0.00002999
N         8.05842482     7.28193912     7.50572738     0.00025204    -0.00040684    -0.00007965
H         6.30057195     7.92390178     6.57073014    -0.00176186    -0.00009366    -0.00012887
H         6.11035220     7.38631817     8.40964578    -0.00018542    -0.00029304     0.00059930
H         8.62172082     7.08022530     8.34762392    -0.00034552     0.00046937     0.00057632
H         8.64400357     7.68698845     6.73042667     0.00084652     0.00019471     0.00093957
O         9.05632216    10.17508445     7.03291109     0.00007746     0.00016675    -0.00003904
H         8.94840632    11.13462694     7.06155070     0.00001809     0.00027790     0.00021131
H         8.81872395     9.89307100     7.91421526    -0.00017780     0.00031947    -0.00012719
     9
  Step:    22            Position(A)                                  Velocity(au)
C         6.78914300     7.56681721     7.51014181    -0.00027959     0.00018274    -0.00002733
N         8.05913826     7.28082351     7.50550698     0.00026940    -0.00040901    -0.00008151
H         6.29570883     7.92364667     6.57036301    -0.00179394    -0.00009349    -0.00013847
H         6.10983613     7.38552537     8.41125654    -0.00019149    -0.00028668     0.00057808
H         8.62078333     7.08148541     8.34921875    -0.00034021     0.00045214     0.00058999
H         8.64632458     7.68751077     6.73300155     0.00085103     0.00018745     0.00094309
O         9.05653219    10.17553970     7.03280460     0.00007614     0.00016626    -0.00003884
H         8.94846932    11.13537653     7.06212029     0.00002809     0.00026987     0.00020502
H         8.81825020     9.89397432     7.91388214    -0.00016872     0.00034091    -0.00011629
     9
  Step:    23            Position(A)                                  Velocity(au)
C         6.78835461     7.56732175     7.51007065    -0.00029672     0.00018622    -0.00002476
N         8.05989825     7.27970215     7.50528160     0.00028607    -0.00041105    -0.00008329
H         6.29076049     7.92339044     6.56997282    -0.00182415    -0.00009449    -0.00014572
H         6.10930491     7.38475026     8.41280742    -0.00019653    -0.00028012     0.00055553
H         8.61986011     7.08269816     8.35085073    -0.00033510     0.00043474     0.00060346
H         8.64865803     7.68801366     6.73558464     0.00085564     0.00018051     0.00094556
O         9.05673858    10.17599374     7.03269868     0.00007480     0.00016585    -0.00003862
H         8.94855997    11.13610292     7.06267201     0.00003832     0.00026096     0.00019825
H         8.81780120     9.89493549     7.91357923    -0.00015969     0.00036177    -0.00010510
     9
  Step:    24            Position(A)                                  Velocity(au)
C         6.78752018     7.56783569     7.51000641    -0.00031324     0.00018961    -0.00002227
N         8.06070284     7.27857541     7.50505147     0.00030202    -0.00041294    -0.00008497
H         6.28573214     7.92312987     6.56956605    -0.00185245    -0.00009667    -0.00015059
H         6.10876128     7.38399336     8.41429489    -0.00020060    -0.00027336     0.00053175
H         8.61895058     7.08386311     8.35251920    -0.00033023     0.00041718     0.00061664
H         8.65100425     7.68849804     6.73817306     0.00086038     0.00017391     0.00094698
O         9.05694131    10.17644680     7.03259337     0.00007346     0.00016554    -0.00003839
H         8.94867891    11.13680379     7.06320454     0.00004878     0.00025125     0.00019098
H         8.81737680     9.89595291     7.91330733    -0.00015072     0.00038204    -0.00009362
     9
  Step:    25            Position(A)                                  Velocity(au)
C         6.78664141     7.56835875     7.50994884    -0.00032913     0.00019289    -0.00001988
N         8.06155005     7.27744367     7.50481687     0.00031722    -0.00041470    -0.00008656
H         6.28062905     7.92286173     6.56914920    -0.00187879    -0.00010002    -0.00015309
H         6.10820779     7.38325517     8.41571567    -0.00020377    -0.00026643     0.00050681
H         8.61805402     7.08497982     8.35422327    -0.00032563     0.00039947     0.00062946
H         8.65336363     7.68896483     6.74076388     0.00086527     0.00016766     0.00094732
O         9.05714034    10.17689912     7.03248872     0.00007210     0.00016531    -0.00003814
H         8.94882673    11.13747706     7.06371652     0.00005945     0.00024082     0.00018321
H         8.81697686     9.89702496     7.91306720    -0.00014180     0.00040172    -0.00008188
     9
  Step:    26            Position(A)                                  Velocity(au)
C         6.78572010     7.56889067     7.50989768    -0.00034435     0.00019607    -0.00001759
N         8.06243780     7.27630733     7.50457805     0.00033166    -0.00041630    -0.00008805
H         6.27545658     7.92258283     6.56872876    -0.00190317    -0.00010454    -0.00015323
H         6.10764683     7.38253618     8.41706672    -0.00020610    -0.00025933     0.00048079
H         8.61716962     7.08604791     8.35596187    -0.00032136     0.00038162     0.00064185
H         8.65573661     7.68941502     6.74335415     0.00087034     0.00016178     0.00094657
O         9.05733564    10.17735092     7.03238476     0.00007073     0.00016516    -0.00003788
H         8.94900405    11.13812089     7.06420658     0.00007033     0.00022977     0.00017494
H         8.81660126     9.89814999     7.91285953    -0.00013292     0.00042079    -0.00006989
     9
  Step:    27            Position(A)                                  Velocity(au)
C         6.78475810     7.56943112     7.50985263    -0.00035887     0.00019914    -0.00001541
N         8.06336399     7.27516681     7.50433531     0.00034532    -0.00041776    -0.00008943
H         6.27022016     7.92228997     6.56831117    -0.00192557    -0.00011022    -0.00015102
H         6.10708061     7.38183681     8.41834522    -0.00020765    -0.00025208     0.00045379
H         8.61629643     7.08706700     8.35773370    -0.00031745     0.00036365     0.00065373
H         8.65812372     7.68984965     6.74594090     0.00087561     0.00015628     0.00094474
O         9.05752718    10.17780240     7.03228154     0.00006935     0.00016508    -0.00003760
H         8.94921140    11.13873370     7.06467331     0.00008142     0.00021818     0.00016616
H         8.81624989     9.89932636     7.91268497    -0.00012407     0.00043926    -0.00005767
     9
  Step:    28            Position(A)                                  Velocity(au)
C         6.78375734     7.56997981     7.50981339    -0.00037268     0.00020209    -0.00001334
N         8.06432646     7.27402251     7.50408896     0.00035819    -0.00041906    -0.00009069
H         6.26492521     7.92197999     6.56790278    -0.00194597    -0.00011705    -0.00014651
H         6.10651117     7.38115748     8.41954860    -0.00020848    -0.00024469     0.00042589
H         8.61543341     7.08803678     8.35953727    -0.00031394     0.00034556     0.00066503
H         8.66052550     7.69026975     6.74852115     0.00088108     0.00015117     0.00094182
O         9.05771493    10.17825376     7.03217913     0.00006796     0.00016506    -0.00003730
H         8.94944935    11.13931416     7.06511532     0.00009270     0.00020616     0.00015685
H         8.81592267     9.90055240     7.91254410    -0.00011526     0.00045712    -0.00004526
     9
  Step:    29            Position(A)                                  Velocity(au)
C         6.78271981     7.57053638     7.50977965    -0.00038575     0.00020491    -0.00001139
N         8.06532301     7.27287487     7.50383932     0.00037025    -0.00042020    -0.00009183
H         6.25957720     7.92164980     6.56750985    -0.00196438    -0.00012500    -0.00013974
H         6.10594037     7.38049856     8.42067453    -0.00020867    -0.00023717     0.00039719
H         8.61457940     7.08895693     8.36137088    -0.00031087     0.00032736     0.00067567
H         8.66294253     7.69067641     6.75109193     0.00088676     0.00014645     0.00093783
O         9.05789886    10.17870516     7.03207757     0.00006656     0.00016511    -0.00003697
H         8.94971841    11.13986124     7.06553118     0.00010416     0.00019382     0.00014703
H         8.81561952     9.90182645     7.91243744    -0.00010646     0.00047437    -0.00003267
     9
  Step:    30            Position(A)                                  Velocity(au)
C         6.78164757     7.57110049     7.50975107    -0.00039806     0.00020760    -0.00000956
N         8.06635143     7.27172432     7.50358671     0.00038149    -0.00042118    -0.00009285
H         6.25418158     7.92129633     6.56713853    -0.00198079    -0.00013406    -0.00013075
H         6.10536991     7.37986037     8.42172094    -0.00020827    -0.00022953     0.00036778
H         8.61373317     7.08982717     8.36323266    -0.00030828     0.00030906     0.00068559
H         8.66537541     7.69107072     6.75365033     0.00089267     0.00014214     0.00093277
O         9.05807894    10.17915676     7.03197693     0.00006515     0.00016520    -0.00003662
H         8.95001905    11.14037420     7.06591947     0.00011580     0.00018126     0.00013669
H         8.81534041     9.90314684     7.91236540    -0.00009768     0.00049102    -0.00001995
     9
  Step:    31            Position(A)                                  Velocity(au)
C         6.78054271     7.57167177     7.50972734    -0.00040960     0.00021015    -0.00000786
N         8.06740947     7.27057132     7.50333149     0.00039190    -0.00042200    -0.00009374
H         6.24874380     7.92091661     6.56679477    -0.00199522    -0.00014419    -0.00011960