     6
  Step:  1000            Position(A)                                  Velocity(au)
C        -0.68993816     0.00427852    -0.06009662    -0.00010528    -0.00004916     0.00003560
C         0.64884174    -0.01867176    -0.05057789     0.00002115     0.00001045    -0.00024763
H        -1.15048861     0.98832120    -0.11045763     0.00005534     0.00069531    -0.00002152
H        -1.26875888    -0.88143841     0.12589805     0.00135502     0.00020309     0.00024305
H         1.08164510     0.95818585    -0.10453956    -0.00017378    -0.00009471     0.00116602
H         1.26982846    -0.86355771     0.10667971    -0.00023401    -0.00034236     0.00113901
