     6
  Step:     0            Position(A)                                  Velocity(au)
C        -0.69284974     0.00000000     0.00000000     0.00000000     0.00000000     0.00000000
C         0.66284974     0.00000000     0.00000000     0.00000000     0.00000000     0.00000000
H        -1.03381877     0.72280451    -0.32280655     0.00000000     0.00000000     0.00000000
H        -1.23381879    -0.72280451    -0.34280655     0.00000000     0.00000000     0.00000000
H         1.03381877     0.75280451    -0.32280655     0.00000000     0.00000000     0.00000000
H         1.03381877    -0.72280451    -0.31280655     0.00000000     0.00000000     0.00000000
     6
  Step:     1            Position(A)                                  Velocity(au)
C        -0.69278783    -0.00004910     0.00002979     0.00004508    -0.00003566     0.00002163
C         0.66277285     0.00001157     0.00003866    -0.00005600     0.00000837     0.00002809
H        -1.03432454     0.72387499    -0.32311362    -0.00036823     0.00077921    -0.00022301
H        -1.23405634    -0.72323686    -0.34285118    -0.00017326    -0.00031546    -0.00003236
H         1.03421616     0.75358100    -0.32300381     0.00028964     0.00056574    -0.00014342
H         1.03434321    -0.72377184    -0.31307321     0.00038199    -0.00070427    -0.00019373
     6
  Step:     2            Position(A)                                  Velocity(au)
C        -0.69260320    -0.00019506     0.00011831     0.00008937    -0.00007035     0.00004265
C         0.66254347     0.00004579     0.00015365    -0.00011107     0.00001641     0.00005548
H        -1.03583272     0.72706616    -0.32402623    -0.00072988     0.00154381    -0.00043984
H        -1.23476639    -0.72452983    -0.34298354    -0.00034463    -0.00062795    -0.00006360
H         1.03540287     0.75589866    -0.32359094     0.00057534     0.00112293    -0.00028347
H         1.03590794    -0.72665634    -0.31386611     0.00075777    -0.00139593    -0.00038238
     6
  Step:     3            Position(A)                                  Velocity(au)
C        -0.69229903    -0.00043389     0.00026306     0.00013214    -0.00010316     0.00006248
C         0.66216536     0.00010130     0.00034207    -0.00016434     0.00002379     0.00008148
H        -1.03831644     0.73231842    -0.32551923    -0.00107877     0.00228007    -0.00064475
H        -1.23594118    -0.72667128    -0.34319905    -0.00051225    -0.00093459    -0.00009265
H         1.03736282     0.75972255    -0.32455419     0.00085333     0.00166340    -0.00041697
H         1.03848761    -0.73140651    -0.31516450     0.00112147    -0.00206306    -0.00056115
     6
  Step:     4            Position(A)                                  Velocity(au)
C        -0.69188051    -0.00075926     0.00046004     0.00017270    -0.00013330     0.00008062
C         0.66164463     0.00017589     0.00059930    -0.00021501     0.00003025     0.00010552
H        -1.04173274     0.73953637    -0.32755250    -0.00140942     0.00297588    -0.00083271
H        -1.23756801    -0.72964131    -0.34349024    -0.00067438    -0.00123261    -0.00011847
H         1.04006992     0.76499616    -0.32587142     0.00112015     0.00217969    -0.00054101
H         1.04204149    -0.73793969    -0.31693518     0.00146783    -0.00269506    -0.00072586
     6
  Step:     5            Position(A)                                  Velocity(au)
C        -0.69135449    -0.00116292     0.00070398     0.00021049    -0.00016016     0.00009665
C         0.66098941     0.00026675     0.00091918    -0.00026239     0.00003561     0.00012709
H        -1.04602487     0.74859420    -0.33007352    -0.00171736     0.00362133    -0.00099975
H        -1.23962952    -0.73341268    -0.34384697    -0.00082939    -0.00151944    -0.00014013
H         1.04348920     0.77164378    -0.32751309     0.00137281     0.00266535    -0.00065314
H         1.04651552    -0.74614639    -0.31913441     0.00179246    -0.00328310    -0.00087308
     6
  Step:     6            Position(A)                                  Velocity(au)
C        -0.69072930    -0.00163519     0.00098863     0.00024504    -0.00018331     0.00011026
C         0.66020954     0.00037063     0.00129439    -0.00030594     0.00003973     0.00014582
H        -1.05112536     0.75934227    -0.33302035    -0.00199924     0.00420901    -0.00114302
H        -1.24210413    -0.73795150    -0.34425665    -0.00097582    -0.00179279    -0.00015682
H         1.04757812     0.77957359    -0.32944357     0.00160881     0.00311512    -0.00075139
H         1.05184485    -0.75589573    -0.32171026     0.00209193    -0.00382045    -0.00100029
     6
  Step:     7            Position(A)                                  Velocity(au)
C        -0.69001429    -0.00216548     0.00130704     0.00027603    -0.00020253     0.00012127
C         0.65931614     0.00048405     0.00171671    -0.00034525     0.00004258     0.00016146
H        -1.05695915     0.77161423    -0.33632496    -0.00225287     0.00473409    -0.00126087
H        -1.24496649    -0.74321788    -0.34470467    -0.00111240    -0.00205063    -0.00016785
H         1.05228814     0.78868106    -0.33162262     0.00182625     0.00352498    -0.00083437
H         1.05795675    -0.76704130    -0.32460522     0.00236386    -0.00430250    -0.00110589
     6
  Step:     8            Position(A)                                  Velocity(au)
C        -0.68921962    -0.00274286     0.00165186     0.00030323    -0.00021776     0.00012956
C         0.65832128     0.00060352     0.00217745    -0.00038005     0.00004418     0.00017388
H        -1.06344682     0.78523408    -0.33991635    -0.00247717     0.00519420    -0.00135273
H        -1.24818810    -0.74916687    -0.34517469    -0.00123808    -0.00229125    -0.00017268
H         1.05756629     0.79885253    -0.33400691     0.00202380     0.00389225    -0.00090119
H         1.06477336    -0.77942711    -0.32775865     0.00260688    -0.00472674    -0.00118918
     6
  Step:     9            Position(A)                                  Velocity(au)
C        -0.68835585    -0.00335648     0.00201563     0.00032654    -0.00022911     0.00013514
C         0.65723754     0.00072567     0.00266768    -0.00041021     0.00004459     0.00018304
H        -1.07050739     0.80002249    -0.34372333    -0.00267202     0.00558910    -0.00141895
H        -1.25173783    -0.75574925    -0.34564909    -0.00135202    -0.00251328    -0.00017090
H         1.06335676     0.80996868    -0.33655143     0.00220068     0.00421544    -0.00095149
H         1.07221436    -0.79289295    -0.33110913     0.00282049    -0.00509249    -0.00125021
     6
  Step:    10            Position(A)                                  Velocity(au)
C        -0.68743372    -0.00399594     0.00239099     0.00034592    -0.00023680     0.00013809
C         0.65607772     0.00084741     0.00317856    -0.00043571     0.00004394     0.00018902
H        -1.07806073     0.81580214    -0.34767688    -0.00283807     0.00592029    -0.00146062
H        -1.25558260    -0.76291254    -0.34610937    -0.00145361    -0.00271567    -0.00016226
H         1.06960234     0.82190772    -0.33921082     0.00235663     0.00449414    -0.00098535
H         1.08019925    -0.80727913    -0.33459633     0.00300496    -0.00540063    -0.00128967
     6
  Step:    11            Position(A)                                  Velocity(au)
C        -0.68646393    -0.00465161     0.00277086     0.00036144    -0.00024114     0.00013852
C         0.65485455     0.00096601     0.00370150    -0.00045661     0.00004237     0.00019196
H        -1.08602944     0.83240190    -0.35171179    -0.00297656     0.00619058    -0.00147936
H        -1.25968793    -0.77060187    -0.34653651    -0.00154244    -0.00289772    -0.00014664
H         1.07624570     0.83454817    -0.34194053     0.00249179     0.00472891    -0.00100323
H         1.08864918    -0.82243022    -0.33816261     0.00316117    -0.00565324    -0.00130872
     6
  Step:    12            Position(A)                                  Velocity(au)
C        -0.68545690    -0.00531477     0.00314856     0.00037322    -0.00024247     0.00013660
C         0.65358043     0.00107913     0.00422842    -0.00047306     0.00004002     0.00019204
H        -1.09434020     0.84965986    -0.35576786    -0.00308915     0.00640375    -0.00147716
H        -1.26401854    -0.77876085    -0.34691138    -0.00161831    -0.00305902    -0.00012406
H         1.08323050     0.84777121    -0.34469771     0.00260668     0.00492105    -0.00100589
H         1.09748843    -0.83819798    -0.34175403     0.00329047    -0.00585333    -0.00130889
     6
  Step:    13            Position(A)                                  Velocity(au)
C        -0.68442271    -0.00597772     0.00351793     0.00038140    -0.00024119     0.00013252
C         0.65226729     0.00118486     0.00475179    -0.00048526     0.00003704     0.00018949
H        -1.10292472     0.86742546    -0.35979071    -0.00317781     0.00656415    -0.00145618
H        -1.26853885    -0.78733237    -0.34721505    -0.00168122    -0.00319945    -0.00009465
H         1.09050225     0.86146253    -0.34744195     0.00270212     0.00507248    -0.00099430
H         1.10664549    -0.85444344    -0.34532123     0.00339450    -0.00600454    -0.00129191
     6
  Step:    14            Position(A)                                  Velocity(au)
C        -0.68337094    -0.00663387     0.00387334     0.00038618    -0.00023768     0.00012649
C         0.65092644     0.00128170     0.00526476    -0.00049345     0.00003358     0.00018455
H        -1.11172036     0.88556070    -0.36373204    -0.00324461     0.00667646    -0.00141866
H        -1.27321350    -0.79625937    -0.34742907    -0.00173130    -0.00331912    -0.00005864
H         1.09800900     0.87551374    -0.35013577     0.00277910     0.00518551    -0.00096959
H         1.11605375    -0.87103818    -0.34881976     0.00347515    -0.00611083    -0.00125959
     6
  Step:    15            Position(A)                                  Velocity(au)
C        -0.68231063    -0.00727765     0.00420976     0.00038775    -0.00023232     0.00011873
C         0.64956848     0.00136854     0.00576116    -0.00049790     0.00002979     0.00017750
H        -1.12067023     0.90394053    -0.36754967    -0.00329165     0.00674538    -0.00136678
H        -1.27800772    -0.80548541    -0.34753575    -0.00176884    -0.00341838    -0.00001632
H         1.10570177     0.88982326    -0.35274489     0.00283876     0.00526274    -0.00093297
H         1.12565187    -0.88786498    -0.35221022     0.00353433    -0.00617631    -0.00121378
     6
  Step:    16            Position(A)                                  Velocity(au)
C        -0.68125025    -0.00790450     0.00452271     0.00038633    -0.00022546     0.00010943
C         0.64820329     0.00144462     0.00623552    -0.00049888     0.00002576     0.00016856
H        -1.12972315     0.92245271    -0.37120728    -0.00332098     0.00677550    -0.00130263
H        -1.28288767    -0.81495525    -0.34751831    -0.00179423    -0.00349773     0.00003194
H         1.11353483     0.90429687    -0.35523841     0.00288231     0.00530689    -0.00088567
H         1.13538382    -0.90481783    -0.35545820     0.00357399    -0.00620503    -0.00115625
     6
  Step:    17            Position(A)                                  Velocity(au)
C        -0.68019769    -0.00851077     0.00480826     0.00038214    -0.00021742     0.00009879
C         0.64684001     0.00150946     0.00668307    -0.00049665     0.00002162     0.00015800
H        -1.13883343     0.94099730    -0.37467405    -0.00333454     0.00677119    -0.00122812
H        -1.28782076    -0.82461529    -0.34736107    -0.00180796    -0.00355784     0.00008571
H         1.12146581     0.91884786    -0.35758881     0.00291099     0.00532072    -0.00082890
H         1.14519885    -0.92180169    -0.35853399     0.00359601    -0.00620091    -0.00108866
     6
  Step:    18            Position(A)                                  Velocity(au)
C        -0.67916026    -0.00909363     0.00506302     0.00037538    -0.00020848     0.00008700
C         0.64548701     0.00156287     0.00709967    -0.00049148     0.00001744     0.00014604
H        -1.14796051     0.95948591    -0.37792416    -0.00333415     0.00673652    -0.00114501
H        -1.29277580    -0.83441389    -0.34704953    -0.00181058    -0.00359948     0.00014456
H         1.12945572     0.93339712    -0.35977184     0.00292603     0.00530697    -0.00076384
H         1.15505125    -0.93873200    -0.36141233     0.00360220    -0.00616766    -0.00101257
     6
  Step:    19            Position(A)                                  Velocity(au)
C        -0.67814467    -0.00965097     0.00528407     0.00036626    -0.00019888     0.00007422
C         0.64415198     0.00160487     0.00748178    -0.00048364     0.00001331     0.00013288
H        -1.15706865     0.97784088    -0.38093637    -0.00332148     0.00667524    -0.00105486
H        -1.29772323    -0.84430166    -0.34657044    -0.00180270    -0.00362350     0.00020802
H         1.13746895     0.94787289    -0.36176640     0.00292864     0.00526828    -0.00069160
H         1.16490013    -0.95553405    -0.36407199     0.00359426    -0.00610875    -0.00092941
     6
  Step:    20            Position(A)                                  Velocity(au)
C        -0.67715712    -0.01018133     0.00546895     0.00006940    -0.00003692     0.00001185
C         0.64284190     0.00163565     0.00782643    -0.00009255     0.00000181     0.00002321
H        -1.16612646     0.99599432    -0.38369343    -0.00064483     0.00128861    -0.00018751
H        -1.30263519    -0.85423165    -0.34591185    -0.00034900    -0.00070990     0.00005389
H         1.14547311     0.96221052    -0.36355438     0.00057091     0.00101810    -0.00011990
H         1.17470906    -0.97214214    -0.36649546     0.00069873    -0.00117846    -0.00016432
     6
  Step:    21            Position(A)                                  Velocity(au)
C        -0.67698416    -0.01026832     0.00548224     0.00005691    -0.00002668    -0.00000219
C         0.64260444     0.00163516     0.00786995    -0.00008091    -0.00000216     0.00000854
H        -1.16785092     0.99938782    -0.38407179    -0.00061550     0.00119141    -0.00008881
H        -1.30355879    -0.85617188    -0.34566942    -0.00032562    -0.00070761     0.00012375
H         1.14701514     0.96489658    -0.36377127     0.00055592     0.00094452    -0.00003826
H         1.17658367    -0.97523906    -0.36681955     0.00067125    -0.00108470    -0.00007230
     6
  Step:    22            Position(A)                                  Velocity(au)
C        -0.67684589    -0.01032725     0.00545695     0.00004407    -0.00001641    -0.00001635
C         0.64239937     0.00162386     0.00787314    -0.00006889    -0.00000609    -0.00000627
H        -1.16949279     1.00251039    -0.38417918    -0.00058453     0.00109065     0.00001057
H        -1.30441609    -0.85810174    -0.34523503    -0.00030057    -0.00070240     0.00019423
H         1.14851358     0.96737631    -0.36376364     0.00053912     0.00086739     0.00004422
H         1.17838029    -0.97807461    -0.36689089     0.00064179    -0.00098751     0.00002046
     6
  Step:    23            Position(A)                                  Velocity(au)
C        -0.67674315    -0.01035807     0.00539283     0.00003093    -0.00000613    -0.00003059
C         0.64222766     0.00160184     0.00783567    -0.00005654    -0.00000999    -0.00002118
H        -1.17104783     1.00535287    -0.38401398    -0.00055209     0.00098675     0.00011046
H        -1.30520268    -0.86001345    -0.34460713    -0.00027398    -0.00069442     0.00026522
H         1.14996371     0.96964052    -0.36352940     0.00052067     0.00078707     0.00012740
H         1.18009379    -0.98063996    -0.36670767     0.00061056    -0.00088728     0.00011379
     6
  Step:    24            Position(A)                                  Velocity(au)
C        -0.67667670    -0.01036078     0.00528966     0.00001756     0.00000414    -0.00004489
C         0.64209012     0.00156920     0.00775731    -0.00004392    -0.00001386    -0.00003617
H        -1.17251229     1.00790715    -0.38357505    -0.00051837     0.00088007     0.00021068
H        -1.30591453    -0.86189966    -0.34378447    -0.00024597    -0.00068383     0.00033662
H         1.15136125     0.97168100    -0.36306688     0.00050074     0.00070394     0.00021110
H         1.18171957    -0.98292732    -0.36626853     0.00057774    -0.00078438     0.00020754
     6
  Step:    25            Position(A)                                  Velocity(au)
C        -0.67664714    -0.01033541     0.00514730     0.00000397     0.00001439    -0.00005924
C         0.64198746     0.00152604     0.00763786    -0.00003106    -0.00001769    -0.00005121
H        -1.17388290     1.01016615    -0.38286170    -0.00048353     0.00077096     0.00031108
H        -1.30654794    -0.86375350    -0.34276606    -0.00021668    -0.00067082     0.00040833
H         1.15270239     0.97349052    -0.36237485     0.00047950     0.00061833     0.00029517
H         1.18325356    -0.98492993    -0.36557258     0.00054352    -0.00067920     0.00030154
     6
  Step:    26            Position(A)                                  Velocity(au)
C        -0.67665496    -0.01028205     0.00496567    -0.00000976     0.00002461    -0.00007360
C         0.64192023     0.00147245     0.00747722    -0.00001803    -0.00002148    -0.00006628
H        -1.17515685     1.01212372    -0.38187368    -0.00044776     0.00065979     0.00041149
H        -1.30709962    -0.86556853    -0.34155121    -0.00018626    -0.00065555     0.00048024
H         1.15398377     0.97506281    -0.36145251     0.00045712     0.00053061     0.00037947
H         1.18469218    -0.98664201    -0.36461933     0.00050808    -0.00057208     0.00039565
     6
  Step:    27            Position(A)                                  Velocity(au)
C        -0.67670052    -0.01020083     0.00474475    -0.00002361     0.00003477    -0.00008796
C         0.64188884     0.00140855     0.00727536    -0.00000487    -0.00002524    -0.00008135
H        -1.17633178     1.01377468    -0.38061117    -0.00041120     0.00054689     0.00051176
H        -1.30756663    -0.86733885    -0.34013952    -0.00015484    -0.00063820     0.00055224
H         1.15520247     0.97639256    -0.36029944     0.00043375     0.00044112     0.00046384
H         1.18603235    -0.98805877    -0.36340871     0.00047160    -0.00046339     0.00048970
     6
  Step:    28            Position(A)                                  Velocity(au)
C        -0.67678406    -0.01009190     0.00448457    -0.00003751     0.00004486    -0.00010230
C         0.64189359     0.00133443     0.00703231     0.00000837    -0.00002895    -0.00009640
H        -1.17740578     1.01511477    -0.37907476    -0.00037401     0.00043260     0.00061173
H        -1.30794646    -0.86905901    -0.33853090    -0.00012256    -0.00061896     0.00062422
H         1.15635603     0.97747539    -0.35891566     0.00040955     0.00035020     0.00054813
H         1.18727147    -0.98917637    -0.36194103     0.00043426    -0.00035346     0.00058357
     6
  Step:    29            Position(A)                                  Velocity(au)
C        -0.67690568    -0.00995546     0.00418525    -0.00005143     0.00005488    -0.00011659
C         0.64193462     0.00125021     0.00674816     0.00002164    -0.00003263    -0.00011139
H        -1.17837735     1.01614065    -0.37726546    -0.00033637     0.00031724     0.00071127
H        -1.30823696    -0.87072409    -0.33672551    -0.00008958    -0.00059801     0.00069609
H         1.15744241     0.97830787    -0.35730157     0.00038469     0.00025819     0.00063221
H         1.18840742    -0.98999190    -0.36021703     0.00039623    -0.00024263     0.00067710
     6
  Step:    30            Position(A)                                  Velocity(au)
C        -0.67706536    -0.00979174     0.00384692    -0.00006532     0.00006481    -0.00013081
C         0.64201196     0.00115599     0.00642307     0.00003489    -0.00003626    -0.00012632
H        -1.17924545     1.01684986    -0.37518465    -0.00029841     0.00020116     0.00081022
H        -1.30843638    -0.87232967    -0.33472384    -0.00005603    -0.00057554     0.00076773
H         1.15846001     0.97888747    -0.35545797     0.00035933     0.00016542     0.00071592
H         1.18943855    -0.99050339    -0.35823782     0.00035768    -0.00013126     0.00077016
     6
  Step:    31            Position(A)                                  Velocity(au)
C        -0.67726294    -0.00960099     0.00346982    -0.00007914     0.00007464    -0.00014494
C         0.64212547     0.00105189     0.00605726     0.00004808    -0.00003986    -0.00014116
H        -1.18000945     1.01724084    -0.37283415    -0.00026031     0.00008467     0.00090845
H        -1.30854338    -0.87387183    -0.33252663    -0.00002206    -0.00055173     0.00083904
H         1.15940768     0.97921259    -0.35338602     0.00033363     0.00007224     0.00079914
H         1.19036368    -0.99070977    -0.35600487     0.00031879    -0.00001966     0.00086260
     6
  Step:    32            Position(A)                                  Velocity(au)
C        -0.67749817    -0.00938351     0.00305420    -0.00009283     0.00008436    -0.00015897
C         0.64227492     0.00093800     0.00565103     0.00006115    -0.00004341    -0.00015588
H        -1.18066915     1.01731295    -0.37021612    -0.00022222    -0.00003189     0.00100581
H        -1.30855702    -0.87534718    -0.33013494     0.00001219    -0.00052677     0.00090992
H         1.16028469     0.97928254    -0.35108730     0.00030774    -0.00002103     0.00088172
H         1.19118211    -0.99061092    -0.35352006     0.00027973     0.00009181     0.00095430
     6
  Step:    33            Position(A)                                  Velocity(au)
C        -0.67777063    -0.00913962     0.00260039    -0.00010635     0.00009395    -0.00017286
C         0.64245992     0.00081445     0.00520472     0.00007406    -0.00004693    -0.00017046
H        -1.18122480     1.01706644    -0.36733313    -0.00018429    -0.00014819     0.00110217
H        -1.30847673    -0.87675285    -0.32755007     0.00004656    -0.00050085     0.00098027
H         1.16109076     0.97909757    -0.34856372     0.00028182    -0.00011404     0.00096352
H         1.19189360    -0.99020764    -0.35078560     0.00024068     0.00020282     0.00104511
     6
  Step:    34            Position(A)                                  Velocity(au)
C        -0.67807981    -0.00886969     0.00210878    -0.00011966     0.00010340    -0.00018661
C         0.64267996     0.00068133     0.00471874     0.00008675    -0.00005040    -0.00018488
H        -1.18167707     1.01650248    -0.36418813    -0.00014669    -0.00026388     0.00119737
H        -1.30830235    -0.87808647    -0.32477363     0.00008093    -0.00047417     0.00104998
H         1.16182603     0.97865881    -0.34581758     0.00025604    -0.00020647     0.00104442
H         1.19249842    -0.98950165    -0.34780412     0.00020180     0.00031302     0.00113490
     6
  Step:    35            Position(A)                                  Velocity(au)
C        -0.67842506    -0.00857411     0.00157980    -0.00013270     0.00011270    -0.00020018
C         0.64293439     0.00053878     0.00419356     0.00009919    -0.00005383    -0.00019912
H        -1.18202710     1.01562320    -0.36078444    -0.00010960    -0.00037863     0.00129128
H        -1.30803412    -0.87934620    -0.32180746     0.00011513    -0.00044691     0.00111897
H         1.16249111     0.97796834    -0.34285155     0.00023056    -0.00029797     0.00112428
H         1.19299729    -0.98849565    -0.34457856     0.00016329     0.00042206     0.00122354
     6
  Step:    36            Position(A)                                  Velocity(au)
C        -0.67880559    -0.00825332     0.00101394    -0.00014545     0.00012183    -0.00021357
C         0.64322244     0.00038691     0.00362972     0.00011131    -0.00005722    -0.00021315
H        -1.18227649     1.01443169    -0.35712580    -0.00007318    -0.00049206     0.00138377
H        -1.30767267    -0.88053071    -0.31865371     0.00014904    -0.00041926     0.00118714
H         1.16308704     0.97702917    -0.33966864     0.00020555    -0.00038819     0.00120298
H         1.19339147    -0.98719329    -0.34111228     0.00012532     0.00052958     0.00131090
     6
  Step:    37            Position(A)                                  Velocity(au)
C        -0.67922053    -0.00790780     0.00041174    -0.00015784     0.00013078    -0.00022674
C         0.64354318     0.00022584     0.00302781     0.00012308    -0.00006055    -0.00022695
H        -1.18242732     1.01293202    -0.35321631    -0.00003761    -0.00060381     0.00147468
H        -1.30721899    -0.88163920    -0.31531473     0.00018251    -0.00039140     0.00125439
H         1.16361532     0.97584523    -0.33627221     0.00018117    -0.00047680     0.00128038
H         1.19368272    -0.98559923    -0.33740897     0.00008810     0.00063521     0.00139683
     6
  Step:    38            Position(A)                                  Velocity(au)
C        -0.67966884    -0.00753807    -0.00022618    -0.00016983     0.00013953    -0.00023969
C         0.64389559     0.00005572     0.00238848     0.00013444    -0.00006384    -0.00024050
H        -1.18248219     1.01112933    -0.34906046    -0.00000308    -0.00071349     0.00156387
H        -1.30667447    -0.88267135    -0.31179316     0.00021541    -0.00036352     0.00132064
H         1.16407790     0.97442142    -0.33266597     0.00015759    -0.00056345     0.00135636
H         1.19387331    -0.98371915    -0.33347270     0.00005181     0.00073858     0.00148120
     6
  Step:    39            Position(A)                                  Velocity(au)
C        -0.68014939    -0.00714470    -0.00089919    -0.00018139     0.00014805    -0.00025239
C         0.64427847    -0.00012331     0.00171244     0.00014535    -0.00006707    -0.00025379
H        -1.18244419     1.00902980    -0.34466316     0.00003021    -0.00082069     0.00165119
H        -1.30604087    -0.88362738    -0.30809186     0.00024760    -0.00033581     0.00138580
H         1.16447722     0.97276357    -0.32885398     0.00013499    -0.00064779     0.00143079
H         1.19396610    -0.98155979    -0.32930792     0.00001667     0.00083928     0.00156389
     6
  Step:    40            Position(A)                                  Velocity(au)
C        -0.68066090    -0.00672833    -0.00160657    -0.00012255     0.00009955    -0.00016863
C         0.64469053    -0.00031109     0.00100045     0.00009918    -0.00004472    -0.00016987
H        -1.18231698     1.00664076    -0.34002971     0.00003952    -0.00058901     0.00110574
H        -1.30532031    -0.88450797    -0.30421391     0.00017762    -0.00019641     0.00092317
H         1.16481618     0.97087851    -0.32484063     0.00007230    -0.00046449     0.00095741
H         1.19396447    -0.97912896    -0.32491944    -0.00001091     0.00059659     0.00104731
     6
  Step:    41            Position(A)                                  Velocity(au)
C        -0.68101082    -0.00644494    -0.00208451    -0.00013319     0.00010762    -0.00018083
C         0.64497561    -0.00043768     0.00051836     0.00010913    -0.00004784    -0.00018261
H        -1.18216642     1.00488953    -0.33689071     0.00007002    -0.00069062     0.00118929
H        -1.30479235    -0.88500794    -0.30160273     0.00020817    -0.00016947     0.00098614
H         1.16498540     0.96949862    -0.32212415     0.00005193    -0.00054367     0.00102873
H         1.19388943    -0.97736627    -0.32194619    -0.00004342     0.00069138     0.00112656
     6
  Step:    42            Position(A)                                  Velocity(au)
C        -0.68138935    -0.00613972    -0.00259555    -0.00014345     0.00011551    -0.00019282
C         0.64528740    -0.00057273     0.00000172     0.00011869    -0.00005091    -0.00019512
H        -1.18193401     1.00286359    -0.33352521     0.00009929    -0.00078972     0.00127133
H        -1.30418180    -0.88543484    -0.29882051     0.00023796    -0.00014305     0.00104823
H         1.16510018     0.96790506    -0.31921428     0.00003257    -0.00062059     0.00109879
H         1.19372697    -0.97534764    -0.31875802    -0.00007475     0.00078358     0.00120444
     6
  Step:    43            Position(A)                                  Velocity(au)
C        -0.68179538    -0.00581320    -0.00313910    -0.00015329     0.00012319    -0.00020460
C         0.64562474    -0.00071611    -0.00054882     0.00012780    -0.00005392    -0.00020740
H        -1.18162338     1.00057035    -0.32993754     0.00012712    -0.00088592     0.00135171
H        -1.30349087    -0.88579033    -0.29586974     0.00026688    -0.00011733     0.00110936
H         1.16516352     0.96610449    -0.31611459     0.00001438    -0.00069490     0.00116749
H         1.19348062    -0.97308069    -0.31535886    -0.00010467     0.00087280     0.00128080
     6
  Step:    44            Position(A)                                  Velocity(au)
C        -0.68222772    -0.00546598    -0.00371454    -0.00016267     0.00013064    -0.00021614
C         0.64598637    -0.00086766    -0.00113258     0.00013643    -0.00005688    -0.00021941
H        -1.18123873     0.99801830    -0.32613242     0.00015332    -0.00097879     0.00143029
H        -1.30272215    -0.88607655    -0.29275314     0.00029479    -0.00009248     0.00116947
H         1.16517885     0.96410450    -0.31282899    -0.00000246    -0.00076626     0.00123471
H         1.19315448    -0.97057412    -0.31175302    -0.00013300     0.00095864     0.00135553
     6