    14
  Step:  1250            Position(A)                                  Velocity(au)
C        -2.23139738    -1.08475528    -0.96516579     0.00014471     0.00053994     0.00026748
C        -1.83639482    -0.80664052     0.34277189     0.00013836     0.00001207    -0.00077176
H        -1.47318873    -1.36000646    -1.67716755     0.00123067    -0.00153219    -0.00096734
H        -3.21777035    -0.84026256    -1.44180551     0.00126672     0.00233616     0.00298578
H        -2.63798897    -0.32360644     1.00178060     0.00335865     0.00013665     0.00201959
C        -0.41019869    -0.65791850     0.30108825    -0.00007089    -0.00078259    -0.00044847
C         0.24184972     0.26793183     1.00891776    -0.00033903     0.00021563     0.00006760
H        -0.01124440    -0.66480058    -0.74191517    -0.00197946    -0.00046528     0.00114791
H         0.10182780     0.32430773     2.08402005    -0.00117393    -0.00232208     0.00258504
C         1.41278656     0.74006776     0.46461517     0.00000580     0.00081540     0.00071902
H         2.52175216     0.62433874     1.12914903     0.00323470     0.00191389     0.00062269
N         1.57397992     1.25311894    -0.71715261    -0.00050306    -0.00046041    -0.00033280
H         2.51404700     1.53329961    -0.90289301     0.00040301    -0.00134697    -0.00035306
H         0.83723909     1.02086851    -1.18137875    -0.00085130    -0.00200269    -0.00097842
