     6
  Step:  1000            Position(A)                                  Velocity(au)
C        -0.70880781    -0.00308001    -0.05440172    -0.00004068     0.00025785    -0.00003991
C         0.67396853     0.00021983    -0.03893644     0.00005163    -0.00019380     0.00019021
H        -1.24660852     0.90589944     0.01826763    -0.00016598    -0.00042344    -0.00011790
H        -1.29616283    -0.91142039    -0.03339632    -0.00019938    -0.00117576    -0.00000415
H         1.19194857     0.96727906    -0.12325162    -0.00027422     0.00102795    -0.00083633
H         1.20848803    -0.89767594    -0.05062032     0.00050909    -0.00019201    -0.00083253
