     6
  Step:     0            Position(A)                                  Velocity(au)
C        -0.69284974     0.00000000     0.00000000     0.00000000     0.00000000     0.00000000
C         0.66284974     0.00000000     0.00000000     0.00000000     0.00000000     0.00000000
H        -1.03381877     0.72280451    -0.32280655     0.00000000     0.00000000     0.00000000
H        -1.23381879    -0.72280451    -0.34280655     0.00000000     0.00000000     0.00000000
H         1.03381877     0.75280451    -0.32280655     0.00000000     0.00000000     0.00000000
H         1.03381877    -0.72280451    -0.31280655     0.00000000     0.00000000     0.00000000
     6
  Step:     1            Position(A)                                  Velocity(au)
C        -0.69286494    -0.00006059     0.00004590    -0.00001129    -0.00004408     0.00003342
C         0.66284878     0.00002311     0.00005110    -0.00000050     0.00001683     0.00003720
H        -1.03419287     0.72389174    -0.32324099    -0.00027184     0.00079142    -0.00031624
H        -1.23401169    -0.72322208    -0.34290260    -0.00014075    -0.00030468    -0.00006995
H         1.03417347     0.75356871    -0.32304589     0.00025856     0.00055677    -0.00017417
H         1.03422365    -0.72379175    -0.31319264     0.00029446    -0.00071882    -0.00028117
     6
  Step:     2            Position(A)                                  Velocity(au)
C        -0.69291148    -0.00024107     0.00018278    -0.00002324    -0.00008723     0.00006624
C         0.66284702     0.00009205     0.00020347    -0.00000019     0.00003338     0.00007372
H        -1.03530554     0.72713295    -0.32453611    -0.00053676     0.00156808    -0.00062659
H        -1.23458860    -0.72447087    -0.34318911    -0.00028021    -0.00060650    -0.00013870
H         1.03523290     0.75584964    -0.32375914     0.00051375     0.00110510    -0.00034489
H         1.03542924    -0.72673592    -0.31434432     0.00058241    -0.00142499    -0.00055757
     6
  Step:     3            Position(A)                                  Velocity(au)
C        -0.69299206    -0.00053770     0.00040819    -0.00003648    -0.00012862     0.00009790
C         0.66284776     0.00020569     0.00045428     0.00000169     0.00004941     0.00010889
H        -1.03712854     0.73246795    -0.32666794    -0.00078827     0.00231613    -0.00092556
H        -1.23554425    -0.72653915    -0.34366117    -0.00041713    -0.00090265    -0.00020508
H         1.03698330     0.75961277    -0.32493215     0.00076238     0.00163689    -0.00050883
H         1.03740896    -0.73158537    -0.31624213     0.00085769    -0.00210656    -0.00082474
     6
  Step:     4            Position(A)                                  Velocity(au)
C        -0.69311102    -0.00094451     0.00071822    -0.00005155    -0.00016750     0.00012791
C         0.66285624     0.00036229     0.00079903     0.00000578     0.00006472     0.00014215
H        -1.03961678     0.73980040    -0.32959823    -0.00102071     0.00302334    -0.00120838
H        -1.23687000    -0.72940765    -0.34431072    -0.00055034    -0.00119044    -0.00026796
H         1.03940252     0.76480219    -0.32654203     0.00100156     0.00214473    -0.00066297
H         1.04012014    -0.73825718    -0.31885499     0.00111486    -0.00275288    -0.00107872
     6
  Step:     5            Position(A)                                  Velocity(au)
C        -0.69327400    -0.00145380     0.00110773    -0.00006886    -0.00020334     0.00015584
C         0.66287939     0.00055966     0.00123174     0.00001264     0.00007919     0.00017300
H        -1.04271103     0.74900328    -0.33327686    -0.00122951     0.00367971    -0.00147122
H        -1.23855420    -0.73304993    -0.34512670    -0.00067879    -0.00146734    -0.00032629
H         1.04246104     0.77134281    -0.32855807     0.00122884     0.00262214    -0.00080467
H         1.04350638    -0.74664152    -0.32214192     0.00134940    -0.00335511    -0.00131632
     6
  Step:     6            Position(A)                                  Velocity(au)
C        -0.69348765    -0.00205665     0.00157056    -0.00008871    -0.00023580     0.00018140
C         0.66292539     0.00079541     0.00174522     0.00002264     0.00009279     0.00020106
H        -1.04634124     0.75992558    -0.33764470    -0.00141135     0.00427780    -0.00171137
H        -1.24058248    -0.73743286    -0.34609530    -0.00080159    -0.00173101    -0.00037912
H         1.04612331     0.77914329    -0.33094297     0.00144231     0.00306377    -0.00093178
H         1.04750032    -0.75660706    -0.32605424     0.00155789    -0.00390647    -0.00153514
     6
  Step:     7            Position(A)                                  Velocity(au)
C        -0.69375916    -0.00274343     0.00209983    -0.00011122    -0.00026472     0.00020436
C         0.66300322     0.00106716     0.00233140     0.00003599     0.00010556     0.00022608
H        -1.05043005     0.77239952    -0.34263676    -0.00156420     0.00481276    -0.00192723
H        -1.24293826    -0.74251725    -0.34720021    -0.00091801    -0.00197937    -0.00042560
H         1.05034933     0.78809925    -0.33365420     0.00164061     0.00346547    -0.00104264
H         1.05202681    -0.76800690    -0.33053795     0.00173802    -0.00440233    -0.00173368
     6
  Step:     8            Position(A)                                  Velocity(au)
C        -0.69409595    -0.00350444     0.00268827    -0.00013641    -0.00029015     0.00022464
C         0.66312225     0.00137274     0.00298167     0.00005275     0.00011762     0.00024789
H        -1.05489622     0.78624767    -0.34818516    -0.00168721     0.00528227    -0.00211824
H        -1.24560326    -0.74825851    -0.34842300    -0.00102754    -0.00221058    -0.00046500
H         1.05509620     0.79809674    -0.33664543     0.00182299     0.00382436    -0.00113614
H         1.05700595    -0.78068442    -0.33553613     0.00188859    -0.00484017    -0.00191126
     6
  Step:     9            Position(A)                                  Velocity(au)
C        -0.69450522    -0.00433030     0.00332842    -0.00016414    -0.00031230     0.00024219
C         0.66329175     0.00171042     0.00368715     0.00007282     0.00012914     0.00026645
H        -1.05965776     0.80128945    -0.35422192    -0.00178056     0.00568618    -0.00228478
H        -1.24855809    -0.75460743    -0.34974339    -0.00112987    -0.00242308    -0.00049673
H         1.06031969     0.80901554    -0.33986798     0.00198921     0.00413871    -0.00121164
H         1.06235596    -0.79447887    -0.34099107     0.00200937    -0.00521932    -0.00206794
     6
  Step:    10            Position(A)                                  Velocity(au)
C        -0.69499364    -0.00521245     0.00401289    -0.00019414    -0.00033151     0.00025709
C         0.66352050     0.00207903     0.00443896     0.00009593     0.00014036     0.00028182
H        -1.06463450     0.81734671    -0.36068114    -0.00184530     0.00602620    -0.00242793
H        -1.25178279    -0.76151088    -0.35113973    -0.00122493    -0.00261558    -0.00052036
H         1.06597566     0.82073231    -0.34327218     0.00213955     0.00440790    -0.00126902
H         1.06799568    -0.80923006    -0.34684615     0.00210096    -0.00554072    -0.00220438
     6
  Step:    11            Position(A)                                  Velocity(au)
C        -0.69556703    -0.00614339     0.00473451    -0.00022606    -0.00034822     0.00026944
C         0.66381643     0.00247806     0.00522848     0.00012172     0.00015151     0.00029410
H        -1.06975012     0.83424812    -0.36750083    -0.00188313     0.00630543    -0.00254936
H        -1.25525751    -0.76891263    -0.35258938    -0.00131285    -0.00278707    -0.00053561
H         1.07202137     0.83312334    -0.34680853     0.00227469     0.00463221    -0.00130854
H         1.07384660    -0.82478236    -0.35304733     0.00216462    -0.00580660    -0.00232173
     6
  Step:    12            Position(A)                                  Velocity(au)
C        -0.69623004    -0.00711695     0.00548652    -0.00025943    -0.00036293     0.00027940
C         0.66418623     0.00290770     0.00604748     0.00014970     0.00016288     0.00030348
H        -1.07493374     0.85183256    -0.37462415    -0.00189621     0.00652803    -0.00265107
H        -1.25896307    -0.77675402    -0.35406912    -0.00139398    -0.00293680    -0.00054237
H         1.07841647     0.84606690    -0.35042886     0.00239567     0.00481271    -0.00133084
H         1.07983449    -0.84098770    -0.35954422     0.00220214    -0.00602011    -0.00242144
     6
  Step:    13            Position(A)                                  Velocity(au)
C        -0.69698593    -0.00812836     0.00626263    -0.00029369    -0.00037618     0.00028717
C         0.66463515     0.00336889     0.00688829     0.00017926     0.00017472     0.00031018
H        -1.08012090     0.86995141    -0.38200013    -0.00188703     0.00669883    -0.00273528
H        -1.26288150    -0.78497468    -0.35555571    -0.00146886    -0.00306425    -0.00054070
H         1.08512381     0.85944516    -0.35408718     0.00250374     0.00495111    -0.00133687
H         1.08589059    -0.85770774    -0.36629075     0.00221566    -0.00618507    -0.00250517
     6
  Step:    14            Position(A)                                  Velocity(au)
C        -0.69783630    -0.00917434     0.00705711    -0.00032820    -0.00038848     0.00029295
C         0.66516667     0.00386326     0.00774391     0.00020975     0.00018726     0.00031444
H        -1.08525434     0.88847000    -0.38958405    -0.00185831     0.00682308    -0.00280430
H        -1.26699661    -0.79351313    -0.35702631    -0.00153823    -0.00316913    -0.00053087
H         1.09211002     0.87314565    -0.35774053     0.00260036     0.00504956    -0.00132789
H         1.09195244    -0.87481528    -0.37324556     0.00220762    -0.00630569    -0.00257463
     6
  Step:    15            Position(A)                                  Velocity(au)
C        -0.69878091    -0.01025305     0.00786484    -0.00036222    -0.00040036     0.00029698
C         0.66578232     0.00439304     0.00860802     0.00024039     0.00020071     0.00031653
H        -1.09028445     0.90726837    -0.39733747    -0.00181294     0.00690619    -0.00286034
H        -1.27129442    -0.80230739    -0.35845914    -0.00160294    -0.00325135    -0.00051338
H         1.09934578     0.88706238    -0.36134970     0.00268701     0.00511058    -0.00130537
H         1.09796457    -0.89219502    -0.38037199     0.00218066    -0.00638639    -0.00263150
     6
  Step:    16            Position(A)                                  Velocity(au)
C        -0.69981739    -0.01136401     0.00868134    -0.00039497    -0.00041228     0.00029948
C         0.66648142     0.00496101     0.00947508     0.00027036     0.00021524     0.00031673
H        -1.09516973     0.92624155    -0.40522789    -0.00175396     0.00695364    -0.00290549
H        -1.27576347    -0.81129549    -0.35983410    -0.00166397    -0.00331099    -0.00048901
H         1.10680591     0.90109658    -0.36487991     0.00276516     0.00513690    -0.00127108
H         1.10387896    -0.90974390    -0.38763786     0.00213760    -0.00643160    -0.00267733
     6
  Step:    17            Position(A)                                  Velocity(au)
C        -0.70094107    -0.01250789     0.00950279    -0.00042555    -0.00042459     0.00030071
C         0.66726097     0.00557022     0.01034031     0.00029878     0.00023089     0.00031533
H        -1.09987727     0.94529942    -0.41322823    -0.00168465     0.00697075    -0.00294153
H        -1.28039504    -0.82041596    -0.36113365    -0.00172226    -0.00334837    -0.00045888
H         1.11446907     0.91515725    -0.36830155     0.00283609     0.00513142    -0.00122707
H         1.10965559    -0.92737091    -0.39501490     0.00208150    -0.00644567    -0.00271338
     6
  Step:    18            Position(A)                                  Velocity(au)
C        -0.70214483    -0.01368621     0.01032601    -0.00045311    -0.00043753     0.00030090
C         0.66811549     0.00622382     0.01119971     0.00032477     0.00024762     0.00031260
H        -1.10438344     0.96436617    -0.42131580    -0.00160855     0.00696257    -0.00296982
H        -1.28518292    -0.82960851    -0.36234380    -0.00177858    -0.00336407    -0.00042452
H         1.12231714     0.92916149    -0.37159105     0.00290072     0.00509716    -0.00117572
H         1.11526314    -0.94499671    -0.40247794     0.00201568    -0.00643266    -0.00274054
     6
  Step:    19            Position(A)                                  Velocity(au)
C        -0.70341923    -0.01490083     0.01114849    -0.00047694    -0.00045105     0.00030026
C         0.66903723     0.00692450     0.01205002     0.00034767     0.00026512     0.00030881
H        -1.10867481     0.98337929    -0.42947084    -0.00152949     0.00693351    -0.00299099
H        -1.29012250    -0.83881482    -0.36345542    -0.00183308    -0.00335908    -0.00038789
H         1.13033378     0.94303478    -0.37473184     0.00295927     0.00503723    -0.00111972
H         1.12067982    -0.96255262    -0.41000354     0.00194376    -0.00639616    -0.00275912
     6
  Step:    20            Position(A)                                  Velocity(au)
C        -0.70475333    -0.01615309     0.01196823    -0.00009501    -0.00008887     0.00005717
C         0.67001695     0.00767383     0.01288864     0.00007023     0.00005409     0.00005816
H        -1.11274859     1.00228714    -0.43767423    -0.00027747     0.00131691    -0.00057459
H        -1.29520846    -0.84798010    -0.36446528    -0.00036042    -0.00063774    -0.00006713
H         1.13850206     0.95671124    -0.37771505     0.00057576     0.00094747    -0.00020302
H         1.12589401    -0.97997876    -0.41756821     0.00035744    -0.00121213    -0.00052946
     6
  Step:    21            Position(A)                                  Velocity(au)
C        -0.70503779    -0.01641483     0.01212234    -0.00011274    -0.00010250     0.00005549
C         0.67023362     0.00784591     0.01304074     0.00008799     0.00007170     0.00005301
H        -1.11340165     1.00581328    -0.43925917    -0.00020047     0.00126045    -0.00058376
H        -1.29626228    -0.84967888    -0.36459907    -0.00040977    -0.00060316    -0.00003086
H         1.14014195     0.95917514    -0.37819039     0.00062274     0.00085279    -0.00014465
H         1.12676887    -0.98320156    -0.41902300     0.00028243    -0.00114312    -0.00053360
     6
  Step:    22            Position(A)                                  Velocity(au)
C        -0.70536995    -0.01671366     0.01227171    -0.00012996    -0.00011596     0.00005369
C         0.67049820     0.00806597     0.01317856     0.00010533     0.00008914     0.00004772
H        -1.11384498     1.00918086    -0.44086696    -0.00012406     0.00120093    -0.00059124
H        -1.29744957    -0.85127890    -0.36463405    -0.00045787    -0.00056566     0.00000513
H         1.14190795     0.96137532    -0.37850616     0.00066792     0.00075481    -0.00008636
H         1.12743870    -0.98623073    -0.42048657     0.00020751    -0.00107058    -0.00053587
     6
  Step:    23            Position(A)                                  Velocity(au)
C        -0.70574859    -0.01704902     0.01241597    -0.00014681    -0.00012919     0.00005175
C         0.67080971     0.00833346     0.01330171     0.00012237     0.00010636     0.00004228
H        -1.11408018     1.01238142    -0.44249282    -0.00004820     0.00113829    -0.00059694
H        -1.29876651    -0.85277263    -0.36457099    -0.00050446    -0.00052557     0.00004087
H         1.14379494     0.96330335    -0.37866268     0.00071117     0.00065394    -0.00002818
H         1.12790380    -0.98905679    -0.42195377     0.00013269    -0.00099464    -0.00053626
     6
  Step:    24            Position(A)                                  Velocity(au)
C        -0.70617287    -0.01742023     0.01255475    -0.00016340    -0.00014215     0.00004968
C         0.67116747     0.00864769     0.01340980     0.00013921     0.00012331     0.00003670
H        -1.11410859     1.01540643    -0.44413178     0.00002724     0.00107253    -0.00060080
H        -1.30020857    -0.85415334    -0.36441053    -0.00054928    -0.00048315     0.00007640
H         1.14579751     0.96495186    -0.37866031     0.00075241     0.00055057     0.00002986
H         1.12816440    -0.99167065    -0.42341947     0.00005792    -0.00091546    -0.00053479
     6
  Step:    25            Position(A)                                  Velocity(au)
C        -0.70664228    -0.01782647     0.01268766    -0.00017986    -0.00015480     0.00004745
C         0.67157109     0.00900787     0.01350246     0.00015595     0.00013996     0.00003099
H        -1.11393121     1.01824734    -0.44577872     0.00010237     0.00100366    -0.00060278
H        -1.30177067    -0.85541508    -0.36415313    -0.00059217    -0.00043869     0.00011180
H         1.14791002     0.96631454    -0.37849937     0.00079158     0.00044507     0.00008779
H         1.12822060    -0.99406365    -0.42487864    -0.00001683    -0.00083321    -0.00053150
     6
  Step:    26            Position(A)                                  Velocity(au)
C        -0.70715659    -0.01826684     0.01281428    -0.00019628    -0.00016710     0.00004508
C         0.67202041     0.00941314     0.01357928     0.00017267     0.00015628     0.00002513
H        -1.11354868     1.02089566    -0.44742854     0.00017734     0.00093171    -0.00060291
H        -1.30344728    -0.85655262    -0.36379907    -0.00063298    -0.00039244     0.00014712
H         1.15012681     0.96738608    -0.37818019     0.00082867     0.00033782     0.00014561
H         1.12807235    -0.99622764    -0.42632639    -0.00009163    -0.00074807    -0.00052648
     6
  Step:    27            Position(A)                                  Velocity(au)
C        -0.70771581    -0.01874040     0.01293420    -0.00021274    -0.00017906     0.00004255
C         0.67251546     0.00986259     0.01363992     0.00018942     0.00017226     0.00001915
H        -1.11296130     1.02334308    -0.44907615     0.00025225     0.00085676    -0.00060119
H        -1.30523258    -0.85756145    -0.36334847    -0.00067163    -0.00034467     0.00018244
H         1.15244221     0.96816217    -0.37770302     0.00086371     0.00022918     0.00020333
H         1.12771947    -0.99815503    -0.42775807    -0.00016652    -0.00066027    -0.00051979
     6
  Step:    28            Position(A)                                  Velocity(au)
C        -0.70832009    -0.01924614     0.01304699    -0.00022927    -0.00019064     0.00003987
C         0.67305640     0.01035526     0.01368402     0.00020625     0.00018789     0.00001304
H        -1.11216908     1.02558150    -0.45071659     0.00032719     0.00077891    -0.00059768
H        -1.30712058    -0.85843771    -0.36280128    -0.00070807    -0.00029561     0.00021778
H         1.15485064     0.96863950    -0.37706814     0.00089675     0.00011950     0.00026094
H         1.12716163    -0.99983882    -0.42916926    -0.00024154    -0.00057003    -0.00051154
     6
  Step:    29            Position(A)                                  Velocity(au)
C        -0.70896976    -0.01978304     0.01315225    -0.00024594    -0.00020184     0.00003704
C         0.67364349     0.01089018     0.01371126     0.00022318     0.00020315     0.00000682
H        -1.11117181     1.02760314    -0.45234501     0.00040224     0.00069828    -0.00059243
H        -1.30910518    -0.85917823    -0.36215737    -0.00074228    -0.00024551     0.00025318
H         1.15734672     0.96881576    -0.37627587     0.00092784     0.00000917     0.00031842
H         1.12639845    -1.00127266    -0.43055579    -0.00031669    -0.00047758    -0.00050181
     6
  Step:    30            Position(A)                                  Velocity(au)
C        -0.70966518    -0.02035003     0.01324955    -0.00026275    -0.00021265     0.00003406
C         0.67427705     0.01146634     0.01372134     0.00024023     0.00021804     0.00000050
H        -1.10996912     1.02940053    -0.45395671     0.00047744     0.00061498    -0.00058548
H        -1.31118030    -0.85978048    -0.36141657    -0.00077428    -0.00019461     0.00028864
H         1.15992524     0.96868964    -0.37532661     0.00095709    -0.00010145     0.00037573
H         1.12542957    -1.00245084    -0.43191378    -0.00039198    -0.00038318    -0.00049071
     6
  Step:    31            Position(A)                                  Velocity(au)
C        -0.71040679    -0.02094605     0.01333852    -0.00027972    -0.00022305     0.00003094
C         0.67495739     0.01208269     0.01371400     0.00025741     0.00023254    -0.00000591
H        -1.10856058     1.03096659    -0.45554715     0.00055280     0.00052916    -0.00057691
H        -1.31333987    -0.86024261    -0.36057873    -0.00080407    -0.00014316     0.00032415
H         1.16258125     0.96826089    -0.37422093     0.00098457    -0.00021198     0.00043280
H         1.12425464    -1.00336834    -0.43323958    -0.00046736    -0.00028705    -0.00047832
     6
  Step:    32            Position(A)                                  Velocity(au)
C        -0.71119504    -0.02156997     0.01341879    -0.00029686    -0.00023305     0.00002770
C         0.67568485     0.01273815     0.01368901     0.00027469     0.00024663    -0.00001240
H        -1.10694573     1.03229462    -0.45711198     0.00062831     0.00044097    -0.00056678
H        -1.31557795    -0.86056344    -0.35964374    -0.00083171    -0.00009139     0.00035967
H         1.16531006     0.96753030    -0.37295954     0.00101039    -0.00032201     0.00048956
H         1.12287348    -1.00402081    -0.43452985    -0.00054279    -0.00018947    -0.00046476
     6
  Step:    33            Position(A)                                  Velocity(au)
C        -0.71203040    -0.02222064     0.01349001    -0.00031416    -0.00024261     0.00002433
C         0.67645974     0.01343159     0.01364619     0.00029208     0.00026031    -0.00001895
H        -1.10512420     1.03337836    -0.45864698     0.00070394     0.00035057    -0.00055513
H        -1.31788870    -0.86074246    -0.35861161    -0.00085726    -0.00003957     0.00039517
H         1.16810730     0.96649972    -0.37154343     0.00103467    -0.00043117     0.00054591
H         1.12128603    -1.00440457    -0.43578146    -0.00061819    -0.00009066    -0.00045011
     6
  Step:    34            Position(A)                                  Velocity(au)
C        -0.71291327    -0.02289688     0.01355186    -0.00033161    -0.00025174     0.00002085
C         0.67728229     0.01416183     0.01358539     0.00030955     0.00027353    -0.00002554
H        -1.10309572     1.03421196    -0.46014813     0.00077964     0.00025811    -0.00054205
H        -1.32026647    -0.86077985    -0.35748248    -0.00088077     0.00001206     0.00043058
H         1.17096889     0.96517214    -0.36997384     0.00105752    -0.00053902     0.00060175
H         1.11949248    -1.00451665    -0.43699160    -0.00069347     0.00000911    -0.00043447
     6
  Step:    35            Position(A)                                  Velocity(au)
C        -0.71384405    -0.02359744     0.01360406    -0.00034919    -0.00026040     0.00001728
C         0.67815272     0.01492761     0.01350652     0.00032707     0.00028629    -0.00003215
H        -1.10086018     1.03479003    -0.46161157     0.00085533     0.00016377    -0.00052759
H        -1.32270581    -0.86067648    -0.35625668    -0.00090232     0.00006325     0.00046583
H         1.17389110     0.96355167    -0.36825234     0.00107907    -0.00064517     0.00065695
H         1.11749328    -1.00435477    -0.43815766    -0.00076854     0.00010958    -0.00041793
     6
  Step:    36            Position(A)                                  Velocity(au)
C        -0.71482306    -0.02432106     0.01364635    -0.00036687    -0.00026859     0.00001361
C         0.67907112     0.01572764     0.01340954     0.00034462     0.00029856    -0.00003877
H        -1.09841772     1.03510767    -0.46303363     0.00093093     0.00006773    -0.00051182
H        -1.32520148    -0.86043391    -0.35493474    -0.00092201     0.00011375     0.00050085
H         1.17687057     0.96164358    -0.36638082     0.00109947    -0.00074916     0.00071139
H         1.11528917    -1.00391734    -0.43927733    -0.00084327     0.00021050    -0.00040058
     6
  Step:    37            Position(A)                                  Velocity(au)
C        -0.71585055    -0.02506642     0.01367851    -0.00038463    -0.00027629     0.00000987
C         0.68003753     0.01656053     0.01329446     0.00036216     0.00031032    -0.00004538
H        -1.09576869     1.03516045    -0.46441083     0.00100635    -0.00002984    -0.00049481
H        -1.32774850    -0.86005438    -0.35351741    -0.00093994     0.00016329     0.00053555
H         1.17990434     0.95945432    -0.36436156     0.00111886    -0.00085058     0.00076493
H         1.11288124    -1.00320349    -0.44034854    -0.00091754     0.00031160    -0.00038254
     6
  Step:    38            Position(A)                                  Velocity(au)
C        -0.71692669    -0.02583214     0.01370035    -0.00040243    -0.00028348     0.00000608
C         0.68105187     0.01742484     0.01316133     0.00037965     0.00032153    -0.00005196
H        -1.09291378     1.03494449    -0.46573988     0.00108146    -0.00012873    -0.00047664
H        -1.33034221    -0.85954084    -0.35200569    -0.00095620     0.00021163     0.00056983
H         1.18298986     0.95699157    -0.36219725     0.00113740    -0.00094896     0.00081741
H         1.11027092    -1.00221311    -0.44136952    -0.00099121     0.00041262    -0.00036389
     6
  Step:    39            Position(A)                                  Velocity(au)
C        -0.71805153    -0.02661682     0.01371174    -0.00042024    -0.00029014     0.00000223
C         0.68211393     0.01831904     0.01301030     0.00039705     0.00033217    -0.00005847
H        -1.08985396     1.03445642    -0.46701771     0.00115615    -0.00022874    -0.00045739
H        -1.33297819    -0.85889691    -0.35040087    -0.00097092     0.00025853     0.00060360
H         1.18612506     0.95426423    -0.35989097     0.00115527    -0.00104386     0.00086867
H         1.10746006    -1.00094679    -0.44233875    -0.00106414     0.00051327    -0.00034475
     6
  Step:    40            Position(A)                                  Velocity(au)
C        -0.71922506    -0.02741900     0.01371256    -0.00027819    -0.00018817    -0.00000104
C         0.68322341     0.01924155     0.01284155     0.00026313     0.00021735    -0.00004122
H        -1.08659056     1.03369347    -0.46824145     0.00078137    -0.00020937    -0.00027763
H        -1.33565241    -0.85812689    -0.34870446    -0.00062510     0.00019290     0.00040442
H         1.18930833     0.95128248    -0.35744628     0.00074477    -0.00072073     0.00058339
H         1.10445088    -0.99940593    -0.44325502    -0.00072161     0.00038950    -0.00020655
     6
  Step:    41            Position(A)                                  Velocity(au)
C        -0.72001006    -0.02794157     0.01370440    -0.00029591    -0.00019384    -0.00000493
C         0.68396644     0.01984923     0.01272008     0.00028024     0.00022688    -0.00004757
H        -1.08435286     1.03298238    -0.46897232     0.00085496    -0.00031086    -0.00025662
H        -1.33737908    -0.85753880    -0.34755365    -0.00063733     0.00023652     0.00043700
H         1.19136849     0.94919007    -0.35578371     0.00076190    -0.00080808     0.00063203
H         1.10237973    -0.99820462    -0.44379291    -0.00079279     0.00048873    -0.00018678
     6
  Step:    42            Position(A)                                  Velocity(au)
C        -0.72084344    -0.02847917     0.01368560    -0.00031356    -0.00019915    -0.00000881
C         0.68475608     0.02048242     0.01258136     0.00029720     0.00023599    -0.00005384
H        -1.08191460     1.03199330    -0.46964498     0.00092802    -0.00041260    -0.00023510
H        -1.33913814    -0.85683329    -0.34631443    -0.00064882     0.00027866     0.00046905
H         1.19347531     0.94686293    -0.35398957     0.00077896    -0.00089220     0.00067956
H         1.10011492    -0.99673294    -0.44427656    -0.00086319     0.00058710    -0.00016693
     6
  Step:    43            Position(A)                                  Velocity(au)
C        -0.72172501    -0.02903076     0.01365619    -0.00033114    -0.00020407    -0.00001268
C         0.68559190     0.02113993     0.01242563     0.00031400     0.00024466    -0.00006000
H        -1.07927733     1.03072577    -0.47025813     0.00100046    -0.00051440    -0.00021313
H        -1.34092763    -0.85601473    -0.34498832    -0.00065964     0.00031908     0.00050050
H         1.19562881     0.94431042    -0.35206706     0.00079611    -0.00097269     0.00072585
H         1.09765875    -0.99499364    -0.44470591    -0.00093268     0.00068432    -0.00014712
     6
  Step:    44            Position(A)                                  Velocity(au)
C        -0.72265453    -0.02959527     0.01361623    -0.00034862    -0.00020859    -0.00001653
C         0.68647343     0.02182052     0.01225321     0.00033061     0.00025286    -0.00006603
H        -1.07644287     1.02917991    -0.47081063     0.00107218    -0.00061605    -0.00019078
H        -1.34274585    -0.85508818    -0.34357710    -0.00066987     0.00035753     0.00053126
H         1.19782941     0.94154305    -0.35001974     0.00081348    -0.00104913     0.00077077
H         1.09501389    -0.99299023    -0.44508117    -0.00100112     0.00078011    -0.00012743
     6