     6
  Step:  1000            Position(A)                                  Velocity(au)
C        -0.69017882    -0.02193698    -0.03257522    -0.00000849    -0.00022590     0.00002516
C         0.64698654     0.01896682    -0.04431426     0.00001895    -0.00005551    -0.00016043
H        -1.21079876    -0.11393768    -0.98217600    -0.00050690     0.00079691     0.00026696
H        -1.39349322     0.11114462     0.79279997     0.00030313     0.00130352     0.00015496
H         1.35506047    -0.06303979     0.78316270    -0.00062033     0.00046325     0.00074027
H         1.20643133     0.13122490    -0.97879149     0.00069936     0.00078965     0.00044975
