     6
  Step:     0            Position(A)                                  Velocity(au)
C        -0.69284974     0.00000000     0.00000000     0.00000000     0.00000000     0.00000000
C         0.66284974     0.00000000     0.00000000     0.00000000     0.00000000     0.00000000
H        -1.03381877     0.72280451    -0.32280655     0.00000000     0.00000000     0.00000000
H        -1.23381879    -0.72280451    -0.34280655     0.00000000     0.00000000     0.00000000
H         1.03381877     0.75280451    -0.32280655     0.00000000     0.00000000     0.00000000
H         1.03381877    -0.72280451    -0.31280655     0.00000000     0.00000000     0.00000000
     6
  Step:     1            Position(A)                                  Velocity(au)
C        -0.69282497    -0.00005635     0.00005081     0.00001793    -0.00004098     0.00003700
C         0.66281106     0.00001778     0.00005762    -0.00002807     0.00001292     0.00004196
H        -1.03431896     0.72385751    -0.32327887    -0.00036419     0.00076659    -0.00034382
H        -1.23411474    -0.72320781    -0.34293051    -0.00021589    -0.00029418    -0.00009040
H         1.03426670     0.75356942    -0.32307827     0.00032654     0.00055729    -0.00019794
H         1.03433275    -0.72375946    -0.31323062     0.00037439    -0.00069533    -0.00030880
     6
  Step:     2            Position(A)                                  Velocity(au)
C        -0.69275167    -0.00022411     0.00020238     0.00003514    -0.00008103     0.00007339
C         0.66269621     0.00007064     0.00022950    -0.00005529     0.00002551     0.00008322
H        -1.03581063     0.72699714    -0.32468700    -0.00072197     0.00151918    -0.00068128
H        -1.23499956    -0.72441342    -0.34330099    -0.00042957    -0.00058523    -0.00017978
H         1.03560468     0.75585244    -0.32388914     0.00064886     0.00110610    -0.00039277
H         1.03586638    -0.72660741    -0.31449547     0.00074276    -0.00137845    -0.00061230
     6
  Step:     3            Position(A)                                  Velocity(au)
C        -0.69263278    -0.00049950     0.00045218     0.00005094    -0.00011928     0.00010856
C         0.66250867     0.00015727     0.00051276    -0.00008083     0.00003746     0.00012310
H        -1.03826756     0.73216624    -0.32700495    -0.00106721     0.00224450    -0.00100637
H        -1.23646416    -0.72640859    -0.34391376    -0.00063888    -0.00087014    -0.00026710
H         1.03781546     0.75961895    -0.32522642     0.00096291     0.00163830    -0.00058146
H         1.03839506    -0.73129854    -0.31657943     0.00109934    -0.00203777    -0.00090546
     6
  Step:     4            Position(A)                                  Velocity(au)
C        -0.69247306    -0.00087646     0.00079611     0.00006469    -0.00015496     0.00014198
C         0.66225413     0.00027553     0.00090274    -0.00010394     0.00004853     0.00016098
H        -1.04164745     0.73927283    -0.33019106    -0.00139441     0.00293066    -0.00131374
H        -1.23849373    -0.72917239    -0.34476180    -0.00084178    -0.00114598    -0.00035134
H         1.04087105     0.76481270    -0.32706928     0.00126495     0.00214638    -0.00076120
H         1.04187894    -0.73775243    -0.31944763     0.00143889    -0.00266277    -0.00118376
     6
  Step:     5            Position(A)                                  Velocity(au)
C        -0.69227894    -0.00134704     0.00122870     0.00007585    -0.00018748     0.00017320
C         0.66194020     0.00042269     0.00139318    -0.00012395     0.00005851     0.00019633
H        -1.04589389     0.74819467    -0.33419011    -0.00169887     0.00356761    -0.00159896
H        -1.24106806    -0.73267623    -0.34583531    -0.00103641    -0.00141010    -0.00043151
H         1.04473378     0.77135799    -0.32938957     0.00155169     0.00262373    -0.00092946
H         1.04626466    -0.74586181    -0.32305371     0.00175685    -0.00324451    -0.00144341
     6
  Step:     6            Position(A)                                  Velocity(au)
C        -0.69205824    -0.00190181     0.00174336     0.00008395    -0.00021636     0.00020185
C         0.66157619     0.00059556     0.00197652    -0.00014034     0.00006728     0.00022874
H        -1.05093893     0.75878488    -0.33893612    -0.00197694     0.00414758    -0.00185860
H        -1.24416209    -0.73688453    -0.34712185    -0.00122110    -0.00166008    -0.00050673
H         1.04935761     0.77916250    -0.33215272     0.00182035     0.00306491    -0.00108416
H         1.05148753    -0.75549738    -0.32734197     0.00204958    -0.00377592    -0.00168138
     6
  Step:     7            Position(A)                                  Velocity(au)
C        -0.69181979    -0.00253036     0.00233264     0.00008868    -0.00024135     0.00022766
C         0.66117266     0.00079064     0.00264419    -0.00015268     0.00007476     0.00025787
H        -1.05670625     0.77087876    -0.34435524    -0.00222605     0.00466520    -0.00209041
H        -1.24774653    -0.74175560    -0.34860671    -0.00139442    -0.00189384    -0.00057612
H         1.05468968     0.78812066    -0.33531908     0.00206876     0.00346564    -0.00122360
H         1.05747429    -0.76651319    -0.33224957     0.00231439    -0.00425193    -0.00189560
     6
  Step:     8            Position(A)                                  Velocity(au)
C        -0.69157325    -0.00322182     0.00298851     0.00008978    -0.00026237     0.00025049
C         0.66074115     0.00100446     0.00338690    -0.00016070     0.00008099     0.00028354
H        -1.06311372     0.78429994    -0.35036906    -0.00244467     0.00511742    -0.00229323
H        -1.25178850    -0.74724240    -0.35027280    -0.00155519    -0.00210962    -0.00063894
H         1.06067215     0.79811687    -0.33884484     0.00229541     0.00382295    -0.00134655
H         1.06414547    -0.77875215    -0.33770941     0.00254954    -0.00466946    -0.00208488
     6
  Step:     9            Position(A)                                  Velocity(au)
C        -0.69132874    -0.00396532     0.00370263     0.00008718    -0.00027948     0.00027025
C         0.66029374     0.00123361     0.00419496    -0.00016428     0.00008602     0.00030566
H        -1.07007670     0.79886711    -0.35689742    -0.00263237     0.00550347    -0.00246686
H        -1.25625224    -0.75329360    -0.35210123    -0.00170250    -0.00230605    -0.00069461
H         1.06724380     0.80902923    -0.34268367     0.00249934     0.00413514    -0.00145233
H         1.07141830    -0.79205154    -0.34365224     0.00275428    -0.00502738    -0.00224883
     6
  Step:    10            Position(A)                                  Velocity(au)
C        -0.69109646    -0.00475034     0.00446659     0.00008087    -0.00029286     0.00028698
C         0.65984267     0.00147495     0.00505862    -0.00016341     0.00008996     0.00032423
H        -1.07751073     0.81439968    -0.36386087    -0.00278962     0.00582449    -0.00261197
H        -1.26109988    -0.75985472    -0.35407178    -0.00183571    -0.00248216    -0.00074270
H         1.07434163     0.82073288    -0.34678796     0.00268019     0.00440170    -0.00154070
H         1.07920924    -0.80624806    -0.35000880     0.00292873    -0.00532625    -0.00238779
     6
  Step:    11            Position(A)                                  Velocity(au)
C        -0.69088645    -0.00556705     0.00527217     0.00007096    -0.00030283     0.00030075
C         0.65940000     0.00172564     0.00596823    -0.00015822     0.00009294     0.00033934
H        -1.08533375     0.83072258    -0.37118285    -0.00291765     0.00608320    -0.00272990
H        -1.26629216    -0.76686912    -0.35616324    -0.00195442    -0.00263734    -0.00078293
H         1.08190236     0.83310312    -0.35111013     0.00283807     0.00462315    -0.00161186
H         1.08743617    -0.82118201    -0.35671161     0.00307373    -0.00556803    -0.00250267
     6
  Step:    12            Position(A)                                  Velocity(au)
C        -0.69070836    -0.00640656     0.00611145     0.00005763    -0.00030973     0.00031171
C         0.65897735     0.00198327     0.00691455    -0.00014890     0.00009512     0.00035117
H        -1.09346800     0.84767011    -0.37879134    -0.00301826     0.00628354    -0.00282255
H        -1.27178903    -0.77427892    -0.35835381    -0.00205846    -0.00277130    -0.00081516
H         1.08986367     0.84601795    -0.35560361     0.00297355     0.00480091    -0.00166635
H         1.09602020    -0.83670086    -0.36369645     0.00319074    -0.00575582    -0.00259486
     6
  Step:    13            Position(A)                                  Velocity(au)
C        -0.69057125    -0.00726104     0.00697699     0.00004112    -0.00031398     0.00032005
C         0.65858562     0.00224587     0.00788886    -0.00013575     0.00009665     0.00035993
H        -1.10184128     0.86508871    -0.38662004    -0.00309363     0.00643025    -0.00289213
H        -1.27755033    -0.78202598    -0.36062153    -0.00214790    -0.00288410    -0.00083939
H         1.09816540     0.85936041    -0.36022380     0.00308756     0.00493709    -0.00170500
H         1.10488707    -0.85266189    -0.37090349     0.00328161    -0.00589351    -0.00266610
     6
  Step:    14            Position(A)                                  Velocity(au)
C        -0.69048346    -0.00812381     0.00786187     0.00002171    -0.00031600     0.00032597
C         0.65823489     0.00251189     0.00888307    -0.00011910     0.00009770     0.00036586
H        -1.11038780     0.88283863    -0.39460908    -0.00314619     0.00652854    -0.00294106
H        -1.28353639    -0.79005274    -0.36294461    -0.00222299    -0.00297607    -0.00085573
H         1.10675022     0.87302001    -0.36492867     0.00318126     0.00503428    -0.00172885
H         1.11396807    -0.86893384    -0.37827797     0.00334847    -0.00598550    -0.00271832
     6
  Step:    15            Position(A)                                  Velocity(au)
C        -0.69045252    -0.00898933     0.00875982    -0.00000030    -0.00031620     0.00032971
C         0.65793423     0.00278023     0.00988982    -0.00009932     0.00009842     0.00036924
H        -1.11904851     0.90079478    -0.40270534    -0.00317842     0.00658376    -0.00297177
H        -1.28970836    -0.79830278    -0.36530170    -0.00228412    -0.00304774    -0.00086441
H         1.11556441     0.88689406    -0.36967926     0.00325602     0.00509546    -0.00173908
H         1.12320060    -0.88539795    -0.38577061     0.00339361    -0.00603640    -0.00275355
     6
  Step:    16            Position(A)                                  Velocity(au)
C        -0.69048508    -0.00985316     0.00966514    -0.00002458    -0.00031496     0.00033149
C         0.65769166     0.00305015     0.01090254    -0.00007680     0.00009893     0.00037035
H        -1.12777127     0.91884673    -0.41086238    -0.00319276     0.00660120    -0.00298670
H        -1.29602874    -0.80672150    -0.36767226    -0.00233182    -0.00309986    -0.00086572
H         1.12455813     0.90088823    -0.37444007     0.00331332     0.00512373    -0.00173694
H         1.13252852    -0.90194826    -0.39333778     0.00341936    -0.00605086    -0.00277383
     6
  Step:    17            Position(A)                                  Velocity(au)
C        -0.69058695    -0.01071189     0.01057279    -0.00005082    -0.00031264     0.00033152
C         0.65751417     0.00332129     0.01191537    -0.00005192     0.00009936     0.00036946
H        -1.13651043     0.93689826    -0.41904027    -0.00319152     0.00658587    -0.00298811
H        -1.30246162    -0.81525661    -0.37003654    -0.00236674    -0.00313332    -0.00085999
H         1.13368570     0.91491692    -0.37917897     0.00335467     0.00512229    -0.00172368
H         1.14190186    -0.91849150    -0.40094132     0.00342793    -0.00603341    -0.00278111
     6
  Step:    18            Position(A)                                  Velocity(au)
C        -0.69076305    -0.01156304     0.01147828    -0.00007872    -0.00030955     0.00033001
C         0.65740768     0.00359358     0.01292321    -0.00002505     0.00009981     0.00036683
H        -1.14522642     0.95486638    -0.42720506    -0.00317682     0.00654238    -0.00297811
H        -1.30897297    -0.82385837    -0.37237576    -0.00238958    -0.00314914    -0.00084761
H         1.14290557     0.92890319    -0.38386728     0.00338158     0.00509425    -0.00170054
H         1.15127664    -0.93494636    -0.40854832     0.00342141    -0.00598824    -0.00277724
     6
  Step:    19            Position(A)                                  Velocity(au)
C        -0.69101749    -0.01240489     0.01237767    -0.00010798    -0.00030595     0.00032715
C         0.65737714     0.00386719     0.01392163     0.00000345     0.00010036     0.00036268
H        -1.15388519     0.97268004    -0.43532823    -0.00315056     0.00647484    -0.00295853
H        -1.31553077    -0.83247998    -0.37467230    -0.00240109    -0.00314837    -0.00082898
H         1.15218033     0.94277852    -0.38847963     0.00339551     0.00504258    -0.00166868
H         1.16061435    -0.95124254    -0.41613070     0.00340174    -0.00591918    -0.00276389
     6
  Step:    20            Position(A)                                  Velocity(au)
C        -0.69135361    -0.01323638     0.01326753    -0.00002633    -0.00005749     0.00006150
C         0.65742654     0.00414248     0.01490681     0.00000633     0.00001924     0.00006799
H        -1.16245753     0.99027874    -0.44338595    -0.00059274     0.00121557    -0.00055784
H        -1.32210505    -0.84107754    -0.37690967    -0.00045717    -0.00059612    -0.00015313
H         1.16147638     0.95648220    -0.39299370     0.00064669     0.00094593    -0.00031007
H         1.16988151    -0.96731969    -0.42366468     0.00064151    -0.00110953    -0.00052198
     6
  Step:    21            Position(A)                                  Velocity(au)
C        -0.69146774    -0.01338813     0.01342942    -0.00005720    -0.00005349     0.00005681
C         0.65748537     0.00419617     0.01508451     0.00003678     0.00002005     0.00006187
H        -1.16402268     0.99346959    -0.44486879    -0.00055117     0.00111653    -0.00052607
H        -1.32334958    -0.84267529    -0.37729116    -0.00045214    -0.00057110    -0.00012538
H         1.16324049     0.95895640    -0.39378274     0.00064258     0.00086197    -0.00026639
H         1.17158597    -0.97021848    -0.42505791     0.00060416    -0.00100897    -0.00049638
     6
  Step:    22            Position(A)                                  Velocity(au)
C        -0.69166647    -0.01352891     0.01357825    -0.00008816    -0.00004947     0.00005195
C         0.65762767     0.00425214     0.01524518     0.00006732     0.00002091     0.00005555
H        -1.16547203     0.99638533    -0.44626314    -0.00050813     0.00101453    -0.00049320
H        -1.32457791    -0.84420104    -0.37759542    -0.00044540    -0.00054356    -0.00009666
H         1.16499079     0.96119650    -0.39445065     0.00063668     0.00077489    -0.00022154
H         1.17318578    -0.97283799    -0.42637950     0.00056507    -0.00090546    -0.00046967
     6
  Step:    23            Position(A)                                  Velocity(au)
C        -0.69194988    -0.01365870     0.01371356    -0.00011910    -0.00004546     0.00004693
C         0.65785359     0.00431051     0.01538835     0.00009789     0.00002180     0.00004907
H        -1.16680173     0.99901828    -0.44756621    -0.00046373     0.00090989    -0.00045938
H        -1.32578556    -0.84564816    -0.37781983    -0.00043709    -0.00051370    -0.00006700
H         1.16672264     0.96319445    -0.39499437     0.00062918     0.00068505    -0.00017560
H         1.17467644    -0.97517065    -0.42762663     0.00052439    -0.00079935    -0.00044199
     6
  Step:    24            Position(A)                                  Velocity(au)
C        -0.69231786    -0.01377753     0.01383492    -0.00014996    -0.00004145     0.00004176
C         0.65816306     0.00437138     0.01551358     0.00012839     0.00002274     0.00004245
H        -1.16800829     1.00136170    -0.44877561    -0.00041812     0.00080292    -0.00042476
H        -1.32696843    -0.84701060    -0.37796187    -0.00042735    -0.00048175    -0.00003645
H         1.16843192     0.96494321    -0.39541106     0.00062025     0.00059281    -0.00012868
H         1.17605382    -0.97720984    -0.42879686     0.00048229    -0.00069099    -0.00041350
     6
  Step:    25            Position(A)                                  Velocity(au)
C        -0.69277006    -0.01388543     0.01394194    -0.00018066    -0.00003747     0.00003645
C         0.65855578     0.00443488     0.01562050     0.00015874     0.00002372     0.00003569
H        -1.16908854     1.00340966    -0.44988934    -0.00037142     0.00069395    -0.00038948
H        -1.32812286    -0.84828293    -0.37801916    -0.00041636    -0.00044790    -0.00000505
H         1.17011496     0.96643666    -0.39569816     0.00061008     0.00049850    -0.00008086
H         1.17731418    -0.97894985    -0.42988815     0.00043889    -0.00058071    -0.00038432
     6
  Step:    26            Position(A)                                  Velocity(au)
C        -0.69330593    -0.01398248     0.01403430    -0.00021111    -0.00003352     0.00003104
C         0.65903124     0.00450113     0.01570879     0.00018886     0.00002475     0.00002883
H        -1.17003966     1.00515706    -0.45090578    -0.00032374     0.00058325    -0.00035367
H        -1.32924559    -0.84946029    -0.37798946    -0.00040425    -0.00041240     0.00002716
H         1.17176859     0.96766963    -0.39585331     0.00059883     0.00040247    -0.00003222
H         1.17845418    -0.98038587    -0.43089880     0.00039432    -0.00046883    -0.00035460
     6
  Step:    27            Position(A)                                  Velocity(au)
C        -0.69392469    -0.01406875     0.01411168    -0.00024126    -0.00002960     0.00002551
C         0.65958871     0.00457024     0.01577817     0.00021868     0.00002582     0.00002187
H        -1.17085914     1.00659961    -0.45182365    -0.00027520     0.00047112    -0.00031746
H        -1.33033377    -0.85053843    -0.37787065    -0.00039117    -0.00037545     0.00006011
H         1.17339009     0.96863785    -0.39587439     0.00058667     0.00030504     0.00001715
H         1.17947082    -0.98151397    -0.43182751     0.00034872    -0.00035566    -0.00032445
     6
  Step:    28            Position(A)                                  Velocity(au)
C        -0.69462541    -0.01414437     0.01417384    -0.00027101    -0.00002572     0.00001991
C         0.66022725     0.00464234     0.01582841     0.00024812     0.00002693     0.00001484
H        -1.17154477     1.00773375    -0.45264203    -0.00022590     0.00035784    -0.00028097
H        -1.33138501    -0.85151373    -0.37766073    -0.00037730    -0.00033729     0.00009376
H         1.17497722     0.96933796    -0.39575949     0.00057377     0.00020654     0.00006719
H         1.18036143    -0.98233106    -0.43267332     0.00030222    -0.00024151    -0.00029403
     6
  Step:    29            Position(A)                                  Velocity(au)
C        -0.69540693    -0.01420944     0.01422056    -0.00030032    -0.00002189     0.00001423
C         0.66094574     0.00471755     0.01585933     0.00027712     0.00002809     0.00000775
H        -1.17209462     1.00855669    -0.45336034    -0.00017594     0.00024365    -0.00024433
H        -1.33239731    -0.85238316    -0.37735785    -0.00036278    -0.00029814     0.00012807
H         1.17652816     0.96976747    -0.39550692     0.00056029     0.00010729     0.00011780
H         1.18112371    -0.98283487    -0.43343561     0.00025492    -0.00012669    -0.00026344
     6
  Step:    30            Position(A)                                  Velocity(au)
C        -0.69626792    -0.01426410     0.01425165    -0.00032911    -0.00001811     0.00000849
C         0.66174286     0.00479599     0.01587080     0.00030559     0.00002930     0.00000062
H        -1.17250703     1.00906635    -0.45397834    -0.00012543     0.00012885    -0.00020766
H        -1.33336913    -0.85314432    -0.37696029    -0.00034776    -0.00025823     0.00016298
H         1.17804156     0.96992477    -0.39511519     0.00054639     0.00000762     0.00016893
H         1.18175567    -0.98302396    -0.43411412     0.00020696    -0.00001149    -0.00023282
     6
  Step:    31            Position(A)                                  Velocity(au)
C        -0.69720688    -0.01430851     0.01426698    -0.00035731    -0.00001439     0.00000270
C         0.66261710     0.00487778     0.01586274     0.00033350     0.00003054    -0.00000653
H        -1.17278064     1.00926138    -0.45449611    -0.00007447     0.00001367    -0.00017109
H        -1.33429932    -0.85379546    -0.37646647    -0.00033241    -0.00021778     0.00019845
H         1.17951652     0.96980916    -0.39458302     0.00053225    -0.00009215     0.00022049
H         1.18225563    -0.98289771    -0.43470893     0.00015844     0.00010379    -0.00020229
     6
  Step:    32            Position(A)                                  Velocity(au)
C        -0.69822215    -0.01434281     0.01426644    -0.00038488    -0.00001073    -0.00000311
C         0.66356682     0.00496304     0.01583510     0.00036076     0.00003184    -0.00001369
H        -1.17291432     1.00914114    -0.45491408    -0.00002314    -0.00010161    -0.00013474
H        -1.33518717    -0.85433540    -0.37587493    -0.00031688    -0.00017702     0.00023443
H         1.18095257     0.96942076    -0.39390931     0.00051802    -0.00019172     0.00027241
H         1.18262224    -0.98245629    -0.43522049     0.00010949     0.00021886    -0.00017199
     6
  Step:    33            Position(A)                                  Velocity(au)
C        -0.69931190    -0.01436720     0.01424998    -0.00041177    -0.00000714    -0.00000894
C         0.66459017     0.00505189     0.01578789     0.00038733     0.00003317    -0.00002083
H        -1.17290721     1.00870568    -0.45523301     0.00002845    -0.00021673    -0.00009873
H        -1.33603240    -0.85476362    -0.37518432    -0.00030132    -0.00013619     0.00027087
H         1.18234971     0.96876062    -0.39309316     0.00050387    -0.00029074     0.00032462
H         1.18285444    -0.98170070    -0.43564959     0.00006020     0.00033342    -0.00014205
     6
  Step:    34            Position(A)                                  Velocity(au)
C        -0.70047419    -0.01438184     0.01421757    -0.00043791    -0.00000361    -0.00001476
C         0.66568520     0.00514446     0.01572117     0.00041315     0.00003455    -0.00002795
H        -1.17275869     1.00795580    -0.45545404     0.00008023    -0.00033143    -0.00006319
H        -1.33683514    -0.85508024    -0.37439345    -0.00028587    -0.00009550     0.00030774
H         1.18370837     0.96783064    -0.39213389     0.00048997    -0.00038890     0.00037705
H         1.18295147    -0.98063273    -0.43599740     0.00001068     0.00044717    -0.00011261
     6
  Step:    35            Position(A)                                  Velocity(au)
C        -0.70170691    -0.01438695     0.01416923    -0.00046326    -0.00000016    -0.00002058
C         0.66684978     0.00524086     0.01563503     0.00043818     0.00003598    -0.00003502
H        -1.17246843     1.00689299    -0.45557862     0.00013208    -0.00044546    -0.00002826
H        -1.33759591    -0.85528596    -0.37350124    -0.00027070    -0.00005520     0.00034497
H         1.18502944     0.96663364    -0.39103098     0.00047647    -0.00048587     0.00042963
H         1.18291287    -0.97925501    -0.43626546    -0.00003894     0.00055981    -0.00008380
     6
  Step:    36            Position(A)                                  Velocity(au)
C        -0.70300787    -0.01438275     0.01410502    -0.00048779     0.00000320    -0.00002637
C         0.66808169     0.00534121     0.01552962     0.00046237     0.00003744    -0.00004203
H        -1.17203630     1.00551950    -0.45560861     0.00018393    -0.00055852     0.00000592
H        -1.33831567    -0.85538215    -0.37250671    -0.00025595    -0.00001551     0.00038254
H         1.18631427     0.96517331    -0.38978412     0.00046354    -0.00058132     0.00048230
H         1.18273850    -0.97757100    -0.43645572    -0.00008857     0.00067103    -0.00005578
     6
  Step:    37            Position(A)                                  Velocity(au)
C        -0.70437474    -0.01436945     0.01402503    -0.00051145     0.00000648    -0.00003211
C         0.66937856     0.00544565     0.01540517     0.00048567     0.00003896    -0.00004895
H        -1.17146245     1.00383831    -0.45554624     0.00023568    -0.00067035     0.00003921
H        -1.33899576    -0.85537080    -0.37140902    -0.00024176     0.00002334     0.00042040
H         1.18756464     0.96345429    -0.38839319     0.00045136    -0.00067490     0.00053496
H         1.18242847    -0.97558501    -0.43657051    -0.00013809     0.00078051    -0.00002869
     6
  Step:    38            Position(A)                                  Velocity(au)
C        -0.70580513    -0.01434731     0.01392941    -0.00053422     0.00000966    -0.00003779
C         0.67073795     0.00555427     0.01526191     0.00050807     0.00004051    -0.00005577
H        -1.17074730     1.00185318    -0.45539414     0.00028723    -0.00078067     0.00007147
H        -1.33963791    -0.85525450    -0.37020744    -0.00022827     0.00006113     0.00045851
H         1.18878284     0.96148211    -0.38685828     0.00044009    -0.00076628     0.00058756
H         1.18198325    -0.97330221    -0.43661262    -0.00018740     0.00088794    -0.00000269
     6
  Step:    39            Position(A)                                  Velocity(au)
C        -0.70729653    -0.01431661     0.01381835    -0.00055607     0.00001274    -0.00004340
C         0.67215731     0.00566722     0.01510016     0.00052952     0.00004211    -0.00006246
H        -1.16989150     0.99956867    -0.45515536     0.00033849    -0.00088916     0.00010253
H        -1.34024422    -0.85503649    -0.36890135    -0.00021562     0.00009761     0.00049682
H         1.18997158     0.95926332    -0.38517968     0.00042990    -0.00085510     0.00064001
H         1.18140356    -0.97072868    -0.43658524    -0.00023638     0.00099297     0.00002204
     6
  Step:    40            Position(A)                                  Velocity(au)
C        -0.70884640    -0.01427762     0.01369207    -0.00041466     0.00001129    -0.00003515
C         0.67363401     0.00578460     0.01492029     0.00039527     0.00003145    -0.00004960
H        -1.16889600     0.99699017    -0.45483338     0.00027982    -0.00071547     0.00009503
H        -1.34081717    -0.85472062    -0.36749024    -0.00014656     0.00009529     0.00038471
H         1.19113409     0.95680540    -0.38335790     0.00030255    -0.00067627     0.00049750
H         1.18069045    -0.96787141    -0.43649206    -0.00020476     0.00078717     0.00003259
     6
  Step:    41            Position(A)                                  Velocity(au)
C        -0.71000827    -0.01424275     0.01358848    -0.00043473     0.00001416    -0.00004057
C         0.67474224     0.00587287     0.01477583     0.00041489     0.00003313    -0.00005600
H        -1.16806156     0.99488976    -0.45453388     0.00033026    -0.00081976     0.00012343
H        -1.34120270    -0.85441336    -0.36638549    -0.00013581     0.00012876     0.00042328
H         1.19195018     0.95484075    -0.38192619     0.00029485    -0.00075934     0.00054943
H         1.18006447    -0.96558090    -0.43637209    -0.00025283     0.00088685     0.00005454
     6
  Step:    42            Position(A)                                  Velocity(au)
C        -0.71122405    -0.01420016     0.01347018    -0.00045408     0.00001694    -0.00004589
C         0.67590312     0.00596577     0.01461404     0.00043375     0.00003484    -0.00006225
H        -1.16708974     0.99250674    -0.45415830     0.00038023    -0.00092199     0.00015058
H        -1.34155993    -0.85401642    -0.36517521    -0.00012595     0.00016076     0.00046189
H         1.19274670     0.95265240    -0.38035294     0.00028833    -0.00083970     0.00060102
H         1.17930767    -0.96302101    -0.43619379    -0.00030038     0.00098400     0.00007517
     6
  Step:    43            Position(A)                                  Velocity(au)
C        -0.71249174    -0.01415012     0.01333747    -0.00047269     0.00001961    -0.00005111
C         0.67711453     0.00606339     0.01443536     0.00045184     0.00003657    -0.00006834
H        -1.16598199     0.98984716    -0.45371029     0.00042962    -0.00102187     0.00017632
H        -1.34189153    -0.85353410    -0.36385929    -0.00011711     0.00019109     0.00050052
H         1.19352714     0.95024824    -0.37863910     0.00028317    -0.00091699     0.00065221
H         1.17842164    -0.96019915    -0.43596095    -0.00034728     0.00107828     0.00009434
     6
  Step:    44            Position(A)                                  Velocity(au)
C        -0.71380927    -0.01409291     0.01319066    -0.00049052     0.00002217    -0.00005619
C         0.67837433     0.00616580     0.01424026     0.00046912     0.00003834    -0.00007425
H        -1.16474003     0.98691790    -0.45319395     0.00047833    -0.00111906     0.00020048
H        -1.34220043    -0.85297128    -0.36243776    -0.00010941     0.00021954     0.00053912
H         1.19429541     0.94763715    -0.37678587     0.00027952    -0.00099087     0.00070292
H         1.17740830    -0.95712365    -0.43567784    -0.00039342     0.00116934     0.00011185
     6