     2
  Step:   500            Position(A)                                  Velocity(au)
He       -0.54667461     0.00000000     0.00000000     0.00025516     0.00000000     0.00000000
He        0.54667461     0.00000000     0.00000000    -0.00025516     0.00000000     0.00000000
