     6
  Step:  1000            Position(A)                                  Velocity(au)
C        -0.72207164    -0.02268272    -0.08025609    -0.00006656    -0.00016326     0.00010452
C         0.68028700     0.00726401    -0.05031027     0.00008087     0.00014865     0.00004762
H        -1.43657044     0.75112451    -0.45119215     0.00069713     0.00044339    -0.00137286
H        -1.33515929    -0.59411349     0.66453916    -0.00020032     0.00021595     0.00030469
H         1.29015929     0.67355295     0.63041651    -0.00003487    -0.00027917     0.00057363
H         1.42199777    -0.61683321    -0.58914976    -0.00063248    -0.00020611    -0.00131846
