     6
  Step:     0            Position(A)                                  Velocity(au)
C        -0.69284974     0.00000000     0.00000000     0.00000000     0.00000000     0.00000000
C         0.66284974     0.00000000     0.00000000     0.00000000     0.00000000     0.00000000
H        -1.03381877     0.72280451    -0.32280655     0.00000000     0.00000000     0.00000000
H        -1.23381879    -0.72280451    -0.34280655     0.00000000     0.00000000     0.00000000
H         1.03381877     0.75280451    -0.32280655     0.00000000     0.00000000     0.00000000
H         1.03381877    -0.72280451    -0.31280655     0.00000000     0.00000000     0.00000000
     6
  Step:     1            Position(A)                                  Velocity(au)
C        -0.69283980    -0.00005400     0.00004745     0.00000708    -0.00003925     0.00003455
C         0.66282463     0.00001653     0.00005464    -0.00001815     0.00001201     0.00003978
H        -1.03427975     0.72385707    -0.32324702    -0.00033541     0.00076610    -0.00032063
H        -1.23406156    -0.72321670    -0.34292047    -0.00017713    -0.00030075    -0.00008300
H         1.03422087     0.75356542    -0.32306942     0.00029312     0.00055438    -0.00019136
H         1.03430128    -0.72375935    -0.31320573     0.00035125    -0.00069515    -0.00029070
     6
  Step:     2            Position(A)                                  Velocity(au)
C        -0.69281099    -0.00021465     0.00018894     0.00001344    -0.00007754     0.00006848
C         0.66275049     0.00006568     0.00021757    -0.00003543     0.00002370     0.00007886
H        -1.03565319     0.72699447    -0.32456015    -0.00066395     0.00151759    -0.00063532
H        -1.23478756    -0.72444938    -0.34326050    -0.00035258    -0.00059868    -0.00016474
H         1.03542189     0.75583655    -0.32385313     0.00058243     0.00110037    -0.00037916
H         1.03573984    -0.72660645    -0.31439645     0.00069603    -0.00137774    -0.00057651
     6
  Step:     3            Position(A)                                  Velocity(au)
C        -0.69276627    -0.00047808     0.00042200     0.00001840    -0.00011400     0.00010125
C         0.66263087     0.00014616     0.00048592    -0.00005101     0.00003480     0.00011656
H        -1.03791107     0.73215713    -0.32672172    -0.00097920     0.00224077    -0.00093852
H        -1.23598991    -0.72649100    -0.34382147    -0.00052472    -0.00089102    -0.00024397
H         1.03740633     0.75958360    -0.32514312     0.00086433     0.00162994    -0.00055999
H         1.03810804    -0.73129454    -0.31635879     0.00102823    -0.00203592    -0.00085284
     6
  Step:     4            Position(A)                                  Velocity(au)
C        -0.69271036    -0.00083813     0.00074267     0.00002135    -0.00014786     0.00013232
C         0.66247148     0.00025599     0.00085504    -0.00006418     0.00004506     0.00015228
H        -1.04100866     0.73924975    -0.32969315    -0.00127550     0.00292355    -0.00122541
H        -1.23765738    -0.72932257    -0.34459486    -0.00069201    -0.00117514    -0.00031953
H         1.04014911     0.76475107    -0.32691586     0.00113550     0.00213577    -0.00073077
H         1.04136345    -0.73774135    -0.31906085     0.00134240    -0.00265915    -0.00111565
     6
  Step:     5            Position(A)                                  Velocity(au)
C        -0.69264951    -0.00128677     0.00114570     0.00002180    -0.00017855     0.00016130
C         0.66227985     0.00039259     0.00131878    -0.00007432     0.00005432     0.00018553
H        -1.04488705     0.74814672    -0.33342375    -0.00154823     0.00355609    -0.00149211
H        -1.23977466    -0.73291813    -0.34556906    -0.00085303    -0.00144859    -0.00039031
H         1.04361665     0.77126462    -0.32913984     0.00139311     0.00261152    -0.00088877
H         1.04544993    -0.74583801    -0.32246053     0.00163401    -0.00323869    -0.00136163
     6
  Step:     6            Position(A)                                  Velocity(au)
C        -0.69259114    -0.00181467     0.00162484     0.00001938    -0.00020568     0.00018785
C         0.66206500     0.00055308     0.00186975    -0.00008097     0.00006251     0.00021592
H        -1.04947631     0.75869883    -0.33785384    -0.00179402     0.00413106    -0.00173589
H        -1.24232282    -0.73724524    -0.34672955    -0.00100656    -0.00170912    -0.00045531
H         1.04776834     0.77903405    -0.33177676     0.00163485     0.00305199    -0.00103181
H         1.05030022    -0.75545448    -0.32650790     0.00189957    -0.00376789    -0.00158833
     6
  Step:     7            Position(A)                                  Velocity(au)
C        -0.69254350    -0.00241167     0.00217309     0.00001387    -0.00022906     0.00021177
C         0.66183702     0.00073445     0.00249969    -0.00008382     0.00006961     0.00024318
H        -1.05469897     0.77074045    -0.34291771    -0.00201067     0.00464375    -0.00195514
H        -1.24527976    -0.74226571    -0.34805923    -0.00115156    -0.00195477    -0.00051362
H         1.05255799     0.78795663    -0.33478303     0.00185902     0.00345324    -0.00115816
H         1.05583912    -0.76644545    -0.33114749     0.00213668    -0.00424223    -0.00179425
     6
  Step:     8            Position(A)                                  Velocity(au)
C        -0.69251526    -0.00306743     0.00278305     0.00000517    -0.00024868     0.00023295
C         0.66160658     0.00093379     0.00319974    -0.00008272     0.00007570     0.00026715
H        -1.06047314     0.78409655    -0.34854697    -0.00219715     0.00509186    -0.00214935
H        -1.24862098    -0.74793630    -0.34953864    -0.00128724    -0.00218383    -0.00056448
H         1.05793577     0.79792059    -0.33811102     0.00206454     0.00381258    -0.00126667
H         1.06198623    -0.77865623    -0.33632104     0.00234399    -0.00465927    -0.00197869
     6
  Step:     9            Position(A)                                  Velocity(au)
C        -0.69251523    -0.00377178     0.00344712    -0.00000671    -0.00026471     0.00025135
C         0.66138459     0.00114846     0.00396080    -0.00007767     0.00008089     0.00028780
H        -1.06671569     0.79858897    -0.35467297    -0.00235344     0.00547522    -0.00231884
H        -1.25231998    -0.75420959    -0.35114648    -0.00141301    -0.00239494    -0.00060726
H         1.06384946     0.80880851    -0.34171076     0.00225086     0.00412853    -0.00135670
H         1.06865891    -0.79192808    -0.34196941     0.00252107    -0.00501839    -0.00214175
     6
  Step:    10            Position(A)                                  Velocity(au)
C        -0.69255195    -0.00451518     0.00415775    -0.00002163    -0.00027740     0.00026704
C         0.66118178     0.00137618     0.00477378    -0.00006879     0.00008534     0.00030517
H        -1.07334463     0.81404176    -0.36122926    -0.00248032     0.00579539    -0.00246477
H        -1.25634907    -0.76103477    -0.35285987    -0.00152855    -0.00258701    -0.00064147
H         1.07024623     0.82050047    -0.34553113     0.00241797     0.00440069    -0.00142805
H         1.07577454    -0.80610293    -0.34803474     0.00266832    -0.00532050    -0.00228416
     6
  Step:    11            Position(A)                                  Velocity(au)
C        -0.69263351    -0.00528894     0.00490760    -0.00003937    -0.00028711     0.00028011
C         0.66100836     0.00161520     0.00562984    -0.00005632     0.00008924     0.00031939
H        -1.08028111     0.83028529    -0.36815338    -0.00257922     0.00605529    -0.00258878
H        -1.26067996    -0.76835853    -0.35465483    -0.00163371    -0.00275927    -0.00066680
H         1.07707390     0.83287688    -0.34952112     0.00256630     0.00462959    -0.00148099
H         1.08325256    -0.82102711    -0.35446202     0.00278680    -0.00556778    -0.00240716
     6
  Step:    12            Position(A)                                  Velocity(au)
C        -0.69276726    -0.00608544     0.00568973    -0.00005964    -0.00029424     0.00029072
C         0.66087378     0.00186425     0.00652061    -0.00004056     0.00009277     0.00033065
H        -1.08745100     0.84715953    -0.37538787    -0.00265208     0.00625880    -0.00269282
H        -1.26528421    -0.77612587    -0.35650674    -0.00172853    -0.00291126    -0.00068309
H         1.08428190     0.84582079    -0.35363099     0.00269657     0.00481657    -0.00151612
H         1.09101617    -0.83655439    -0.36120005     0.00287808    -0.00576331    -0.00251226
     6
  Step:    13            Position(A)                                  Velocity(au)
C        -0.69295969    -0.00689821     0.00649762    -0.00008210    -0.00029922     0.00029904
C         0.66078650     0.00212256     0.00743825    -0.00002193     0.00009610     0.00033917
H        -1.09478594     0.86451611    -0.38288104    -0.00270110     0.00641041    -0.00277905
H        -1.27013368    -0.78428088    -0.35839081    -0.00181319    -0.00304277    -0.00069037
H         1.09182206     0.85921979    -0.35781314     0.00280978     0.00496353    -0.00153438
H         1.09899344    -0.85254797    -0.36820217     0.00294411    -0.00591078    -0.00260119
     6
  Step:    14            Position(A)                                  Velocity(au)
C        -0.69321630    -0.00772194     0.00732527    -0.00010638    -0.00030245     0.00030527
C         0.66075386     0.00238985     0.00837559    -0.00000083     0.00009940     0.00034519
H        -1.10222392     0.88221954    -0.39058713    -0.00272865     0.00651489    -0.00284960
H        -1.27520094    -0.79276748    -0.36028251    -0.00188797    -0.00315385    -0.00068880
H         1.09964924     0.87296745    -0.36202284     0.00290707     0.00507281    -0.00153690
H         1.10711819    -0.86888182    -0.37542655     0.00298706    -0.00601424    -0.00267569
     6
  Step:    15            Position(A)                                  Velocity(au)
C        -0.69354152    -0.00855240     0.00816723    -0.00013209    -0.00030432     0.00030960
C         0.66078199     0.00266620     0.00932617     0.00002229     0.00010279     0.00034898
H        -1.10970957     0.90014751    -0.39846614    -0.00273717     0.00657702    -0.00290648
H        -1.28045942    -0.80153002    -0.36215801    -0.00195322    -0.00324478    -0.00067873
H         1.10772146     0.88696415    -0.36621877     0.00298958     0.00514702    -0.00152502
H         1.11533034    -0.88544120    -0.38283614     0.00300920    -0.00607780    -0.00273747
     6
  Step:    16            Position(A)                                  Velocity(au)
C        -0.69393875    -0.00938634     0.00901855    -0.00015887    -0.00030515     0.00031222
C         0.66087579     0.00295202     0.01028423     0.00004700     0.00010636     0.00035078
H        -1.11719413     0.91819078    -0.40648334    -0.00272903     0.00660151    -0.00295149
H        -1.28588355    -0.81051391    -0.36399462    -0.00200928    -0.00331602    -0.00066065
H         1.11599995     0.90111769    -0.37036351     0.00305847     0.00518891    -0.00150022
H         1.12357617    -0.90212268    -0.39039837     0.00301284    -0.00610556    -0.00278805
     6
  Step:    17            Position(A)                                  Velocity(au)
C        -0.69441039    -0.01022133     0.00987483    -0.00018635    -0.00030522     0.00031331
C         0.66103904     0.00324789     0.01124469     0.00007289     0.00011016     0.00035085
H        -1.12463525     0.93625267    -0.41460852    -0.00270653     0.00659280    -0.00298618
H        -1.29144862    -0.81966609    -0.36577126    -0.00205644    -0.00336823    -0.00063518
H         1.12444891     0.91534350    -0.37442382     0.00311476     0.00520128    -0.00146405
H         1.13180825    -0.91883390    -0.39808461     0.00300027    -0.00610148    -0.00282880
     6
  Step:    18            Position(A)                                  Velocity(au)
C        -0.69495797    -0.01105566     0.01073210    -0.00021426    -0.00030476     0.00031303
C         0.66127444     0.00355451     0.01220313     0.00009960     0.00011422     0.00034942
H        -1.13199676     0.95424834    -0.42281545    -0.00267182     0.00655508    -0.00301187
H        -1.29713072    -0.82893552    -0.36746857    -0.00209499    -0.00340219    -0.00060299
H         1.13303529     0.92956469    -0.37837073     0.00315944     0.00518691    -0.00141805
H         1.13998533    -0.93549306    -0.40586972     0.00297367    -0.00606929    -0.00286091
     6
  Step:    19            Position(A)                                  Velocity(au)
C        -0.69558223    -0.01188816     0.01158686    -0.00024232    -0.00030396     0.00031154
C         0.66158378     0.00387260     0.01315575     0.00012682     0.00011855     0.00034669
H        -1.13924806     0.97210388    -0.43108114    -0.00262686     0.00649214    -0.00302967
H        -1.30290663    -0.83827344    -0.36906913    -0.00212518    -0.00341878    -0.00056478
H         1.14172860     0.94371188    -0.38217945     0.00319338     0.00514848    -0.00136370
H         1.14807195    -0.95202825    -0.41373155     0.00293507    -0.00601247    -0.00288536
     6
  Step:    20            Position(A)                                  Velocity(au)
C        -0.69628329    -0.01271808     0.01243598    -0.00005190    -0.00005815     0.00005931
C         0.66196802     0.00420288     0.01409926     0.00002961     0.00002363     0.00006582
H        -1.14636364     0.98975532    -0.43938538    -0.00049400     0.00123001    -0.00058367
H        -1.30875382    -0.84763364    -0.37055747    -0.00041220    -0.00065633    -0.00010006
H         1.15050064     0.95772289    -0.38582913     0.00061763     0.00097683    -0.00025002
H         1.15603791    -0.96837666    -0.42165043     0.00055408    -0.00113917    -0.00055729
     6
  Step:    21            Position(A)                                  Velocity(au)
C        -0.69646341    -0.01287562     0.01259397    -0.00007981    -0.00005705     0.00005615
C         0.66208663     0.00427392     0.01427329     0.00005712     0.00002834     0.00006138
H        -1.14763615     0.99298929    -0.44099178    -0.00043604     0.00113349    -0.00059061
H        -1.30990572    -0.84941783    -0.37076819    -0.00042950    -0.00064712    -0.00005362
H         1.15221592     0.96029833    -0.38642467     0.00063600     0.00090501    -0.00018502
H         1.15748005    -0.97137119    -0.42319416     0.00049988    -0.00104922    -0.00057117
     6
  Step:    22            Position(A)                                  Velocity(au)
C        -0.69671977    -0.01303011     0.01274306    -0.00010764    -0.00005593     0.00005281
C         0.66228042     0.00435787     0.01443495     0.00008458     0.00003307     0.00005677
H        -1.14874843     0.99595463    -0.44261558    -0.00037691     0.00103371    -0.00059644
H        -1.31110285    -0.85117287    -0.37085072    -0.00044529    -0.00063509    -0.00000635
H         1.15397906     0.96267258    -0.38684107     0.00065267     0.00082985    -0.00011907
H         1.15877188    -0.97411509    -0.42477432     0.00044424    -0.00095603    -0.00058396
     6
  Step:    23            Position(A)                                  Velocity(au)
C        -0.69705210    -0.01318152     0.01288280    -0.00013535    -0.00005479     0.00004931
C         0.66254923     0.00445478     0.01458380     0.00011196     0.00003781     0.00005202
H        -1.14969755     0.99864287    -0.44425382    -0.00031679     0.00093098    -0.00060120
H        -1.31234109    -0.85289130    -0.37080291    -0.00045957    -0.00062041     0.00004167
H         1.15578554     0.96483697    -0.38707588     0.00066774     0.00075169    -0.00005229
H         1.15990971    -0.97659996    -0.42638798     0.00038733    -0.00085992    -0.00059570
     6
  Step:    24            Position(A)                                  Velocity(au)
C        -0.69746005    -0.01332977     0.01301276    -0.00016292    -0.00005363     0.00004567
C         0.66289277     0.00456466     0.01471947     0.00013922     0.00004255     0.00004713
H        -1.15048101     1.00104637    -0.44590366    -0.00025583     0.00082561    -0.00060495
H        -1.31361634    -0.85456605    -0.37062281    -0.00047236    -0.00060324     0.00009037
H         1.15763107     0.96678372    -0.38712705     0.00068126     0.00067084     0.00001519
H         1.16089027    -0.97881821    -0.42803233     0.00032931    -0.00076119    -0.00060643
     6
  Step:    25            Position(A)                                  Velocity(au)
C        -0.69794316    -0.01347483     0.01313257    -0.00019031    -0.00005245     0.00004189
C         0.66331067     0.00468749     0.01484158     0.00016632     0.00004727     0.00004212
H        -1.15109676     1.00315833    -0.44756244    -0.00019420     0.00071790    -0.00060776
H        -1.31492452    -0.85619053    -0.37030865    -0.00048368    -0.00058373     0.00013968
H         1.15951153     0.96850595    -0.38699281     0.00069333     0.00058764     0.00008323
H         1.16171079    -0.98076310    -0.42970469     0.00027036    -0.00066014    -0.00061621
     6
  Step:    26            Position(A)                                  Velocity(au)
C        -0.69850089    -0.01361661     0.01324185    -0.00021749    -0.00005124     0.00003798
C         0.66380243     0.00482320     0.01494984     0.00019323     0.00005196     0.00003700
H        -1.15154313     1.00497272    -0.44922761    -0.00013204     0.00060812    -0.00060966
H        -1.31626167    -0.85775861    -0.36985889    -0.00049355    -0.00056207     0.00018951
H         1.16142307     0.96999765    -0.38667182     0.00070402     0.00050239     0.00015173
H         1.16236895    -0.98242869    -0.43140252     0.00021063    -0.00055706    -0.00062508
     6
  Step:    27            Position(A)                                  Velocity(au)
C        -0.69913264    -0.01375505     0.01334028    -0.00024442    -0.00005000     0.00003396
C         0.66436748     0.00497167     0.01504397     0.00021990     0.00005660     0.00003179
H        -1.15181889     1.00648429    -0.45089680    -0.00006949     0.00049656    -0.00061071
H        -1.31762386    -0.85926464    -0.36927219    -0.00050201    -0.00053844     0.00023979
H         1.16336200     0.97125365    -0.38616298     0.00071341     0.00041541     0.00022055
H         1.16286280    -0.98380978    -0.43312337     0.00015028    -0.00045221    -0.00063307
     6
  Step:    28            Position(A)                                  Velocity(au)
C        -0.69983769    -0.01389006     0.01342757    -0.00027109    -0.00004872     0.00002983
C         0.66500512     0.00513276     0.01512371     0.00024631     0.00006118     0.00002649
H        -1.15192316     1.00768851    -0.45256774    -0.00000669     0.00038347    -0.00061097
H        -1.31900728    -0.86070347    -0.36854742    -0.00050910    -0.00051301     0.00029045
H         1.16532488     0.97226963    -0.38546557     0.00072158     0.00032700     0.00028959
H         1.16319087    -0.98490193    -0.43486493     0.00008946    -0.00034588    -0.00064024
     6
  Step:    29            Position(A)                                  Velocity(au)
C        -0.70061527    -0.01402154     0.01350344    -0.00029745    -0.00004741     0.00002562
C         0.66571460     0.00530627     0.01518885     0.00027242     0.00006568     0.00002112
H        -1.15185549     1.00858160    -0.45423832     0.00005621     0.00026913    -0.00061048
H        -1.32040823    -0.86207043    -0.36768363    -0.00051486    -0.00048598     0.00034142
H         1.16730847     0.97304209    -0.38457912     0.00072860     0.00023747     0.00035875
H         1.16335206    -0.98570146    -0.43662501     0.00002830    -0.00023832    -0.00064664
     6
  Step:    30            Position(A)                                  Velocity(au)
C        -0.70146451    -0.01414936     0.01356767    -0.00032348    -0.00004606     0.00002132
C         0.66649504     0.00549198     0.01523923     0.00029820     0.00007009     0.00001570
H        -1.15161575     1.00916047    -0.45590661     0.00011909     0.00015379    -0.00060930
H        -1.32182315    -0.86336140    -0.36668013    -0.00051934    -0.00045752     0.00039261
H         1.16930978     0.97356838    -0.38350351     0.00073458     0.00014712     0.00042789
H         1.16334565    -0.98620537    -0.43840153    -0.00003304    -0.00012981    -0.00065229
     6
  Step:    31            Position(A)                                  Velocity(au)
C        -0.70238445    -0.01427342     0.01362005    -0.00034915    -0.00004465     0.00001696
C         0.66734550     0.00568962     0.01527470     0.00032361     0.00007440     0.00001023
H        -1.15120417     1.00942273    -0.45757074     0.00018181     0.00003771    -0.00060748
H        -1.32324862    -0.86457271    -0.36553638    -0.00052260    -0.00042782     0.00044394
H         1.17132606     0.97384671    -0.38223892     0.00073960     0.00005627     0.00049690
H         1.16317136    -0.98641141    -0.44019254    -0.00009442    -0.00002060    -0.00065726
     6
  Step:    32            Position(A)                                  Velocity(au)
C        -0.70337409    -0.01439358     0.01366041    -0.00037443    -0.00004320     0.00001253
C         0.66826492     0.00589888     0.01529516     0.00034862     0.00007858     0.00000472
H        -1.15062136     1.00936672    -0.45922904     0.00024425    -0.00007886    -0.00060507
H        -1.32468137    -0.86570127    -0.36425212    -0.00052470    -0.00039708     0.00049534
H         1.17335480     0.97387611    -0.38078585     0.00074374    -0.00003479     0.00056569
H         1.16282923    -0.98631802    -0.44199621    -0.00015571     0.00008906    -0.00066158
     6
  Step:    33            Position(A)                                  Velocity(au)
C        -0.70443229    -0.01450968     0.01368860    -0.00039928    -0.00004169     0.00000807
C         0.66925216     0.00611942     0.01530053     0.00037319     0.00008264    -0.00000080
H        -1.14986829     1.00899143    -0.46088003     0.00030628    -0.00019566    -0.00060216
H        -1.32611833    -0.86674446    -0.36282724    -0.00052572    -0.00036549     0.00054674
H         1.17539376     0.97365643    -0.37914504     0.00074712    -0.00012574     0.00063414
H         1.16231973    -0.98592433    -0.44381088    -0.00021677     0.00019890    -0.00066532
     6
  Step:    34            Position(A)                                  Velocity(au)
C        -0.70555786    -0.01462157     0.01370454    -0.00042369    -0.00004012     0.00000357
C         0.67030599     0.00635085     0.01529077     0.00039730     0.00008655    -0.00000633
H        -1.14894625     1.00829660    -0.46252237     0.00036776    -0.00031243    -0.00059879
H        -1.32755665    -0.86770023    -0.36126190    -0.00052572    -0.00033324     0.00059804
H         1.17744098     0.97318840    -0.37731760     0.00074983    -0.00021627     0.00070214
H         1.16164365    -0.98523018    -0.44563499    -0.00027746     0.00030868    -0.00066852
     6
  Step:    35            Position(A)                                  Velocity(au)
C        -0.70674952    -0.01472909     0.01370814    -0.00044760    -0.00003849    -0.00000094
C         0.67142508     0.00659277     0.01526590     0.00042090     0.00009030    -0.00001185
H        -1.14785693     1.00728266    -0.46415496     0.00042857    -0.00042892    -0.00059505
H        -1.32899363    -0.86856702    -0.35955642    -0.00052479    -0.00030052     0.00064918
H         1.17949477     0.97247358    -0.37530488     0.00075199    -0.00030607     0.00076958
H         1.16080222    -0.98423610    -0.44746719    -0.00033765     0.00041813    -0.00067126
     6
  Step:    36            Position(A)                                  Velocity(au)
C        -0.70800589    -0.01483206     0.01369938    -0.00047100    -0.00003679    -0.00000546
C         0.67260801     0.00684470     0.01522596     0.00044397     0.00009387    -0.00001735
H        -1.14660232     1.00595073    -0.46577682     0.00048857    -0.00054486    -0.00059100
H        -1.33042686    -0.86934382    -0.35771137    -0.00052301    -0.00026751     0.00070008
H         1.18155378     0.97151445    -0.37310862     0.00075371    -0.00039480     0.00083633
H         1.15979699    -0.98294335    -0.44930628    -0.00039718     0.00052699    -0.00067361
     6
  Step:    37            Position(A)                                  Velocity(au)
C        -0.70932551    -0.01493031     0.01367826    -0.00049384    -0.00003503    -0.00000998
C         0.67385324     0.00710617     0.01517103     0.00046646     0.00009726    -0.00002280
H        -1.14518483     1.00430269    -0.46738729     0.00054764    -0.00065998    -0.00058675
H        -1.33185412    -0.87003011    -0.35572749    -0.00052048    -0.00023442     0.00075067
H         1.18361699     0.97031435    -0.37073079     0.00075512    -0.00048213     0.00090230
H         1.15862994    -0.98135388    -0.45115129    -0.00045593     0.00063500    -0.00067562
     6
  Step:    38            Position(A)                                  Velocity(au)
C        -0.71070683    -0.01502366     0.01364483    -0.00051610    -0.00003321    -0.00001446
C         0.67515916     0.00737666     0.01510124     0.00048833     0.00010046    -0.00002820
H        -1.14360717     1.00234115    -0.46898588     0.00060564    -0.00077400    -0.00058237
H        -1.33327349    -0.87062592    -0.35360580    -0.00051729    -0.00020143     0.00080085
H         1.18568369     0.96887755    -0.36817376     0.00075634    -0.00056774     0.00096735
H         1.15730339    -0.97947040    -0.45300140    -0.00051377     0.00074189    -0.00067738
     6
  Step:    39            Position(A)                                  Velocity(au)
C        -0.71214819    -0.01511196     0.01359915    -0.00053774    -0.00003133    -0.00001892
C         0.67652404     0.00765560     0.01501677     0.00050956     0.00010344    -0.00003353
H        -1.14187245     1.00006951    -0.47057240     0.00066244    -0.00088664    -0.00057797
H        -1.33468328    -0.87113179    -0.35134746    -0.00051353    -0.00016874     0.00085057
H         1.18775358     0.96720922    -0.36544013     0.00075751    -0.00065129     0.00103138
H         1.15582004    -0.97729632    -0.45485606    -0.00057054     0.00084739    -0.00067899
     6
  Step:    40            Position(A)                                  Velocity(au)
C        -0.71364787    -0.01519502     0.01354137    -0.00036889    -0.00001941    -0.00001539
C         0.67794604     0.00794240     0.01491784     0.00034999     0.00007012    -0.00002560
H        -1.13998415     0.99749194    -0.47214693     0.00047398    -0.00065865    -0.00037875
H        -1.33608210    -0.87154878    -0.34895385    -0.00033627    -0.00009014     0.00059404
H         1.18982670     0.96531549    -0.36253290     0.00050098    -0.00048357     0.00072247
H         1.15418298    -0.97483584    -0.45671497    -0.00041338     0.00062802    -0.00044931
     6
  Step:    41            Position(A)                                  Velocity(au)
C        -0.71468489    -0.01524540     0.01349331    -0.00038931    -0.00001742    -0.00001973
C         0.67893071     0.00813779     0.01484075     0.00036992     0.00007269    -0.00003075
H        -1.13861311     0.99554032    -0.47317686     0.00052823    -0.00076797    -0.00037460
H        -1.33699561    -0.87175161    -0.34726257    -0.00033176    -0.00005848     0.00064269
H         1.19119854     0.96388396    -0.36047207     0.00050245    -0.00056241     0.00078430
H         1.15297744    -0.97297772    -0.45794576    -0.00046784     0.00073022    -0.00045088
     6
  Step:    42            Position(A)                                  Velocity(au)
C        -0.71577710    -0.01529031     0.01343344    -0.00040924    -0.00001541    -0.00002402
C         0.67996922     0.00833999     0.01474969     0.00038934     0.00007511    -0.00003580
H        -1.13709516     0.99329172    -0.47419569     0.00058136    -0.00087571    -0.00037069
H        -1.33789656    -0.87186860    -0.34543884    -0.00032712    -0.00002745     0.00069086
H         1.19257473     0.96223956    -0.35824336     0.00050422    -0.00063909     0.00084520
H         1.15162426    -0.97084207    -0.45918091    -0.00052128     0.00083086    -0.00045255
     6
  Step:    43            Position(A)                                  Velocity(au)
C        -0.71692314    -0.01532966     0.01336196    -0.00042866    -0.00001336    -0.00002822
C         0.68106010     0.00854855     0.01464493     0.00040821     0.00007734    -0.00004076
H        -1.13543350     0.99075088    -0.47520425     0.00063326    -0.00098155    -0.00036713
H        -1.33878469    -0.87190173    -0.34348409    -0.00032243     0.00000277     0.00073849
H         1.19395625     0.96038861    -0.35584950     0.00050642    -0.00071329     0.00090503
H         1.15012643    -0.96843357    -0.46042088    -0.00057356     0.00092963    -0.00045445
     6
  Step:    44            Position(A)                                  Velocity(au)
C        -0.71812153    -0.01536337     0.01327909    -0.00044752    -0.00001129    -0.00003234
C         0.68220179     0.00876300     0.01452679     0.00042648     0.00007940    -0.00004558
H        -1.13363171     0.98792338    -0.47620364     0.00068378    -0.00108521    -0.00036405
H        -1.33966003    -0.87185347    -0.34139988    -0.00031781     0.00003198     0.00078551
H         1.19534448     0.95833839    -0.35329352     0.00050920    -0.00078467     0.00096371
H         1.14848734    -0.96575769    -0.46166640    -0.00062453     0.00102627    -0.00045667
     6