     9
  Step:   800            Position(A)                                  Velocity(au)
C         6.85213980     7.58906499     7.50732156     0.00010414     0.00007583     0.00001027
N         8.11436755     7.66416377     7.38887705     0.00004409     0.00044840    -0.00004533
H         6.34624410     6.62600447     7.60644132     0.00048519    -0.00020471    -0.00027305
H         6.26718888     8.51739145     7.53262788    -0.00039874    -0.00018612     0.00029510
H         8.72018563     6.82659370     7.43985309     0.00038222     0.00078066     0.00060889
H         8.59855524     8.61902056     7.24793213    -0.00002973     0.00057792    -0.00017688
O         8.91870841     9.81124651     7.20924351    -0.00013771    -0.00047536    -0.00006073
H         9.03662692    10.15076859     6.30566895     0.00018522     0.00037519     0.00028114
H         9.15451998    10.60312686     7.72437964    -0.00029076    -0.00092832     0.00073353
