     9
  Step:     0            Position(A)                                  Velocity(au)
C         6.79554999     7.55605723     7.51409468     0.00013271     0.00013888    -0.00009336
N         8.05410625     7.30887334     7.51001345    -0.00018449    -0.00043517    -0.00005298
H         6.39647963     7.93655869     6.56275280    -0.00105895    -0.00041136     0.00057365
H         6.11259940     7.40974363     8.36320140     0.00028111    -0.00043589     0.00071349
H         8.64921781     7.03764388     8.31439330    -0.00051486     0.00088054     0.00049195
H         8.58738296     7.66765418     6.67063625     0.00091084     0.00044118     0.00088032
O         9.05007579    10.16245887     7.03576174     0.00012189     0.00024304    -0.00005104
H         8.95211500    11.11557303     7.04483075    -0.00013367     0.00023902     0.00029662
H         8.83723871     9.88618769     7.92834906    -0.00043007    -0.00017524    -0.00031385
     9
  Step:     1            Position(A)                                  Velocity(au)
C         6.79588315     7.55644226     7.51384126     0.00011079     0.00014275    -0.00009187
N         8.05363750     7.30767869     7.50986593    -0.00015826    -0.00043857    -0.00005494
H         6.39348995     7.93546506     6.56425722    -0.00112747    -0.00038852     0.00052632
H         6.11330866     7.40855254     8.36518720     0.00023845    -0.00043515     0.00073786
H         8.64781023     7.04003779     8.31574470    -0.00051437     0.00087010     0.00049676
H         8.58989207     7.66885442     6.67307070     0.00092381     0.00043656     0.00090013
O         9.05040724    10.16311905     7.03562228     0.00012052     0.00023980    -0.00005095
H         8.95175732    11.11624637     7.04564349    -0.00012791     0.00025331     0.00029776
H         8.83607673     9.88574918     7.92749799    -0.00041977    -0.00014546    -0.00030859
     9
  Step:     2            Position(A)                                  Velocity(au)
C         6.79615594     7.55683795     7.51359224     0.00008859     0.00014667    -0.00009015
N         8.05324071     7.30647471     7.50971297    -0.00013190    -0.00044198    -0.00005696
H         6.39031325     7.93443379     6.56563138    -0.00119561    -0.00036583     0.00047855
H         6.11390353     7.40736370     8.36723692     0.00019748    -0.00043424     0.00076019
H         8.64640461     7.04240263     8.31711019    -0.00051343     0.00085928     0.00050226
H         8.59243549     7.67004183     6.67555926     0.00093595     0.00043181     0.00091986
O         9.05073495    10.16377038     7.03548307     0.00011915     0.00023658    -0.00005086
H         8.95141541    11.11695844     7.04645927    -0.00012212     0.00026727     0.00029882
H         8.83494289     9.88539213     7.92666133    -0.00040949    -0.00011569    -0.00030330
     9
  Step:     3            Position(A)                                  Velocity(au)
C         6.79636764     7.55724442     7.51334820     0.00006614     0.00015064    -0.00008823
N         8.05291613     7.30526140     7.50955440    -0.00010548    -0.00044539    -0.00005904
H         6.38695090     7.93346424     6.56687453    -0.00126312    -0.00034346     0.00043067
H         6.11438873     7.40617759     8.36934487     0.00015828    -0.00043314     0.00078040
H         8.64500218     7.04473738     8.31849167    -0.00051203     0.00084809     0.00050845
H         8.59501102     7.67121609     6.67810162     0.00094731     0.00042696     0.00093944
O         9.05105891    10.16441296     7.03534412     0.00011778     0.00023340    -0.00005076
H         8.95108940    11.11770814     7.04727782    -0.00011627     0.00028078     0.00029977
H         8.83383715     9.88511647     7.92583918    -0.00039922    -0.00008596    -0.00029795
     9
  Step:     4            Position(A)                                  Velocity(au)
C         6.79651768     7.55766183     7.51310970     0.00004351     0.00015465    -0.00008612
N         8.05266381     7.30403875     7.50939007    -0.00007908    -0.00044880    -0.00006118
H         6.38340493     7.93255534     6.56798684    -0.00132978    -0.00032155     0.00038303
H         6.11476919     7.40499478     8.37150511     0.00012090    -0.00043182     0.00079840
H         8.64360419     7.04704102     8.31989103    -0.00051019     0.00083652     0.00051534
H         8.59761654     7.67237694     6.68069729     0.00095791     0.00042202     0.00095881
O         9.05137912    10.16504689     7.03520545     0.00011641     0.00023026    -0.00005066
H         8.95077949    11.11849406     7.04809880    -0.00011034     0.00029369     0.00030058
H         8.83275945     9.88492199     7.92503176    -0.00038899    -0.00005634    -0.00029251
     9
  Step:     5            Position(A)                                  Velocity(au)
C         6.79660560     7.55809026     7.51287722     0.00002074     0.00015871    -0.00008383
N         8.05248363     7.30280683     7.50921981    -0.00005275    -0.00045218    -0.00006337
H         6.37967804     7.93170560     6.56896939    -0.00139533    -0.00030027     0.00033593
H         6.11504995     7.40381587     8.37371152     0.00008539    -0.00043027     0.00081414
H         8.64221183     7.04931250     8.32131018    -0.00050791     0.00082457     0.00052292
H         8.60025005     7.67352422     6.68334556     0.00096781     0.00041703     0.00097788
O         9.05169557    10.16567230     7.03506708     0.00011503     0.00022718    -0.00005055
H         8.95048593    11.11931443     7.04892177    -0.00010430     0.00030591     0.00030122
H         8.83170968     9.88480835     7.92423936    -0.00037879    -0.00002686    -0.00028695
     9
  Step:     6            Position(A)                                  Velocity(au)
C         6.79663109     7.55852984     7.51265122    -0.00000212     0.00016280    -0.00008139
N         8.05237530     7.30156570     7.50904349    -0.00002656    -0.00045552    -0.00006562
H         6.37577353     7.93091311     6.56982413    -0.00145957    -0.00027975     0.00028971
H         6.11523619     7.40264153     8.37595783     0.00005178    -0.00042847     0.00082756
H         8.64082628     7.05155078     8.32275098    -0.00050521     0.00081224     0.00053117
H         8.60290970     7.67465780     6.68604556     0.00097704     0.00041202     0.00099660
O         9.05200825    10.16628936     7.03492900     0.00011365     0.00022416    -0.00005043
H         8.95020903    11.12016715     7.04974622    -0.00009814     0.00031730     0.00030164
H         8.83068777     9.88477509     7.92346236    -0.00036862     0.00000243    -0.00028123
     9
  Step:     7            Position(A)                                  Velocity(au)
C         6.79659400     7.55898063     7.51243210    -0.00002501     0.00016691    -0.00007881
N         8.05233834     7.30031549     7.50886094    -0.00000058    -0.00045881    -0.00006791
H         6.37169530     7.93017560     6.57055386    -0.00152229    -0.00026012     0.00024465
H         6.11533314     7.40147246     8.37823764     0.00002010    -0.00042641     0.00083862
H         8.63944871     7.05375482     8.32421529    -0.00050210     0.00079953     0.00054010
H         8.60559370     7.67577764     6.68879620     0.00098565     0.00040700     0.00101489
O         9.05231715    10.16689827     7.03479124     0.00011226     0.00022122    -0.00005031
H         8.94994918    11.12104983     7.05057151    -0.00009183     0.00032777     0.00030183
H         8.82969359     9.88482162     7.92270126    -0.00035851     0.00003147    -0.00027531
     9
  Step:     8            Position(A)                                  Velocity(au)
C         6.79649429     7.55944271     7.51222021    -0.00004789     0.00017104    -0.00007611
N         8.05237211     7.29905634     7.50867205     0.00002513    -0.00046205    -0.00007026
H         6.36744777     7.92949044     6.57116218    -0.00158331    -0.00024152     0.00020104
H         6.11534612     7.40030939     8.38054444    -0.00000964    -0.00042408     0.00084730
H         8.63808020     7.05592359     8.32570489    -0.00049859     0.00078644     0.00054966
H         8.60830044     7.67688379     6.69159621     0.00099369     0.00040201     0.00103267
O         9.05262224    10.16749924     7.03465382     0.00011087     0.00021836    -0.00005019
H         8.94970680    11.12195979     7.05139697    -0.00008535     0.00033721     0.00030174
H         8.82872701     9.88494721     7.92195663    -0.00034844     0.00006023    -0.00026917
     9
  Step:     9            Position(A)                                  Velocity(au)
C         6.79633210     7.55991611     7.51201584    -0.00007069     0.00017519    -0.00007331
N         8.05247579     7.29778843     7.50847669     0.00005052    -0.00046522    -0.00007264
H         6.36303584     7.92885469     6.57165340    -0.00164246    -0.00022404     0.00015913
H         6.11528042     7.39915309     8.38287172    -0.00003744    -0.00042146     0.00085359
H         8.63672181     7.05805605     8.32722151    -0.00049472     0.00077298     0.00055985
H         8.61102840     7.67797635     6.69444413     0.00100119     0.00039708     0.00104990
O         9.05292351    10.16809253     7.03451674     0.00010947     0.00021560    -0.00005006
H         8.94948239    11.12289409     7.05222181    -0.00007868     0.00034553     0.00030136
H         8.82778789     9.88515103     7.92122912    -0.00033843     0.00008866    -0.00026277
     9
  Step:    10            Position(A)                                  Velocity(au)
C         6.79610769     7.56040087     7.51181924    -0.00009336     0.00017935    -0.00007044
N         8.05264842     7.29651195     7.50827476     0.00007553    -0.00046831    -0.00007506
H         6.35846479     7.92826514     6.57203249    -0.00169962    -0.00020777     0.00011914
H         6.11514136     7.39800435     8.38521290    -0.00006330    -0.00041854     0.00085747
H         8.63537449     7.06015118     8.32876683    -0.00049050     0.00075914     0.00057062
H         8.61377619     7.67905550     6.69733833     0.00100822     0.00039222     0.00106649
O         9.05322094    10.16867838     7.03438001     0.00010806     0.00021293    -0.00004993
H         8.94927648    11.12384955     7.05304515    -0.00007181     0.00035265     0.00030064
H         8.82687606     9.88543213     7.92051948    -0.00032848     0.00011672    -0.00025609
     9
  Step:    11            Position(A)                                  Velocity(au)
C         6.79582147     7.56089700     7.51163060    -0.00011587     0.00018350    -0.00006750
N         8.05288890     7.29522715     7.50806617     0.00010011    -0.00047130    -0.00007750
H         6.35374023     7.92771834     6.57230500    -0.00175469    -0.00019280     0.00008127
H         6.11493423     7.39686400     8.38756144    -0.00008723    -0.00041532     0.00085898
H         8.63403916     7.06220798     8.33034239    -0.00048597     0.00074495     0.00058195
H         8.61654258     7.68012148     6.70027700     0.00101481     0.00038747     0.00108238
O         9.05351450    10.16925710     7.03424365     0.00010664     0.00021038    -0.00004980
H         8.94908966    11.12482279     7.05386606    -0.00006471     0.00035850     0.00029956
H         8.82599135     9.88578942     7.91982852    -0.00031860     0.00014437    -0.00024909
     9
  Step:    12            Position(A)                                  Velocity(au)
C         6.79547399     7.56140447     7.51145007    -0.00013814     0.00018764    -0.00006452
N         8.05319596     7.29393428     7.50785088     0.00012421    -0.00047421    -0.00007996
H         6.34886799     7.92721069     6.57247697    -0.00180760    -0.00017917     0.00004568
H         6.11466426     7.39573287     8.38991084    -0.00010927    -0.00041180     0.00085811
H         8.63271663     7.06422546     8.33194965    -0.00048116     0.00073039     0.00059379
H         8.61932641     7.68117464     6.70325814     0.00102101     0.00038285     0.00109753
O         9.05380417    10.16982899     7.03410766     0.00010521     0.00020794    -0.00004965
H         8.94892256    11.12581025     7.05468351    -0.00005737     0.00036302     0.00029809
H         8.82513357     9.88622174     7.91915715    -0.00030879     0.00017157    -0.00024175
     9
  Step:    13            Position(A)                                  Velocity(au)
C         6.79506594     7.56192326     7.51127774    -0.00016014     0.00019177    -0.00006151
N         8.05356824     7.29263361     7.50762884     0.00014779    -0.00047700    -0.00008243
H         6.34385405     7.92673842     6.57255486    -0.00185832    -0.00016693     0.00001252
H         6.11433659     7.39461179     8.39225464    -0.00012945    -0.00040796     0.00085490
H         8.63140761     7.06620266     8.33358994    -0.00047610     0.00071548     0.00060608
H         8.62212670     7.68221535     6.70627963     0.00102686     0.00037838     0.00111186
O         9.05408992    10.17039436     7.03397207     0.00010377     0.00020561    -0.00004951
H         8.94877588    11.12680822     7.05549641    -0.00004978     0.00036616     0.00029621
H         8.82430250     9.88672778     7.91850631    -0.00029906     0.00019828    -0.00023406
     9
  Step:    14            Position(A)                                  Velocity(au)
C         6.79459815     7.56245330     7.51111368    -0.00018181     0.00019587    -0.00005849
N         8.05400425     7.29132544     7.50740006     0.00017080    -0.00047969    -0.00008488
H         6.33870444     7.92629769     6.57254543    -0.00190683    -0.00015611    -0.00001813
H         6.11395629     7.39350162     8.39458650    -0.00014778    -0.00040382     0.00084940
H         8.63011271     7.06813861     8.33526445    -0.00047085     0.00070024     0.00061878
H         8.62494256     7.68324409     6.70933917     0.00103242     0.00037410     0.00112533
O         9.05437172    10.17095354     7.03383689     0.00010232     0.00020342    -0.00004936
H         8.94865030    11.12781287     7.05630357    -0.00004192     0.00036789     0.00029389
H         8.82349794     9.88730617     7.91787703    -0.00028941     0.00022447    -0.00022598
     9
  Step:    15            Position(A)                                  Velocity(au)
C         6.79407157     7.56299452     7.51095787    -0.00020311     0.00019994    -0.00005547
N         8.05450238     7.29001008     7.50716459     0.00019321    -0.00048226    -0.00008732
H         6.33342518     7.92588460     6.57245572    -0.00195315    -0.00014672    -0.00004617
H         6.11352832     7.39240321     8.39690018    -0.00016433    -0.00039936     0.00084163
H         8.62883244     7.07003241     8.33697421    -0.00046543     0.00068466     0.00063183
H         8.62777323     7.68426139     6.71243432     0.00103772     0.00037003     0.00113788
O         9.05464954    10.17150689     7.03370212     0.00010086     0.00020135    -0.00004920
H         8.94854658    11.12882031     7.05710377    -0.00003379     0.00036819     0.00029110
H         8.82271967     9.88795543     7.91727035    -0.00027984     0.00025009    -0.00021751
     9
  Step:    16            Position(A)                                  Velocity(au)
C         6.79348731     7.56354680     7.51081029    -0.00022398     0.00020396    -0.00005248
N         8.05506095     7.28868786     7.50692247     0.00021498    -0.00048471    -0.00008973
H         6.32802223     7.92549526     6.57229293    -0.00199731    -0.00013875    -0.00007155
H         6.11305751     7.39131741     8.39918957    -0.00017914    -0.00039460     0.00083166
H         8.62756718     7.07188317     8.33872008    -0.00045989     0.00066876     0.00064517
H         8.63061808     7.68526784     6.71556252     0.00104281     0.00036618     0.00114948
O         9.05492335    10.17205475     7.03356779     0.00009939     0.00019940    -0.00004904
H         8.94846550    11.12982659     7.05789569    -0.00002537     0.00036704     0.00028783
H         8.82196745     9.88867399     7.91668740    -0.00027035     0.00027514    -0.00020863
     9
  Step:    17            Position(A)                                  Velocity(au)
C         6.79284656     7.56411002     7.51067087    -0.00024439     0.00020793    -0.00004951
N         8.05567818     7.28735911     7.50667383     0.00023609    -0.00048703    -0.00009209
H         6.32250144     7.92512577     6.57206440    -0.00203936    -0.00013219    -0.00009423
H         6.11254856     7.39024507     8.40144872    -0.00019226    -0.00038952     0.00081955
H         8.62631719     7.07369002     8.34050277    -0.00045428     0.00065255     0.00065871
H         8.63347657     7.68626412     6.71872107     0.00104772     0.00036259     0.00116007
O         9.05519311    10.17259748     7.03343391     0.00009790     0.00019759    -0.00004887
H         8.94840784    11.13082774     7.05867797    -0.00001665     0.00036445     0.00028404
H         8.82124105     9.88946022     7.91612929    -0.00026096     0.00029957    -0.00019934
     9
  Step:    18            Position(A)                                  Velocity(au)
C         6.79215067     7.56468402     7.51053949    -0.00026429     0.00021184    -0.00004660
N         8.05635218     7.28602420     7.50641879     0.00025650    -0.00048922    -0.00009440
H         6.31686851     7.92477226     6.57177754    -0.00207933    -0.00012705    -0.00011420
H         6.11200601     7.38918702     8.40367186    -0.00020374    -0.00038415     0.00080536
H         8.62508260     7.07545212     8.34232275    -0.00044866     0.00063604     0.00067241
H         8.63634829     7.68725093     6.72190719     0.00105250     0.00035927     0.00116962
O         9.05545879    10.17313544     7.03330051     0.00009640     0.00019592    -0.00004869
H         8.94837441    11.13181982     7.05944918    -0.00000764     0.00036042     0.00027973
H         8.82054023     9.89031239     7.91559718    -0.00025165     0.00032336    -0.00018962
     9
  Step:    19            Position(A)                                  Velocity(au)
C         6.79140109     7.56526862     7.51041601    -0.00028364     0.00021568    -0.00004374
N         8.05708104     7.28468348     7.50615753     0.00027619    -0.00049127    -0.00009664
H         6.31112908     7.92443091     6.57143981    -0.00211725    -0.00012330    -0.00013142
H         6.11143424     7.38814408     8.40585339    -0.00021365    -0.00037847     0.00078916
H         8.62386339     7.07716869     8.34418032    -0.00044305     0.00061925     0.00068617
H         8.63923292     7.68822906     6.72511798     0.00105718     0.00035625     0.00117810
O         9.05572036    10.17366899     7.03316760     0.00009489     0.00019437    -0.00004851
H         8.94836604    11.13279896     7.06020785     0.00000167     0.00035499     0.00027486
H         8.81986474     9.89122872     7.91509224    -0.00024242     0.00034648    -0.00017947
     9
  Step:    20            Position(A)                                  Velocity(au)
C         6.79059936     7.56586361     7.51030025    -0.00024352     0.00017671    -0.00003298
N         8.05786273     7.28333734     7.50589026     0.00023766    -0.00039714    -0.00007956
H         6.30528876     7.92409791     6.57105875    -0.00173384    -0.00009739    -0.00011747
H         6.11083748     7.38711707     8.40798794    -0.00017882    -0.00029997     0.00062089
H         8.62265943     7.07883894     8.34607557    -0.00035233     0.00048492     0.00056363
H         8.64213023     7.68919934     6.72835047     0.00085503     0.00028470     0.00095463
O         9.05597778    10.17419850     7.03303521     0.00007519     0.00015538    -0.00003890
H         8.94838356    11.13376135     7.06095245     0.00000909     0.00028039     0.00021696
H         8.81921436     9.89220738     7.91461563    -0.00018786     0.00029709    -0.00013601
     9
  Step:    21            Position(A)                                  Velocity(au)
C         6.78990819     7.56635193     7.51021382    -0.00026172     0.00018039    -0.00003027
N         8.05853800     7.28224880     7.50566981     0.00025589    -0.00039892    -0.00008164
H         6.30049975     7.92383383     6.57071965    -0.00176780    -0.00009631    -0.00012939
H         6.11033801     7.38630514     8.40965976    -0.00018592    -0.00029374     0.00060109
H         8.62170342     7.08014148     8.34763564    -0.00034692     0.00046761     0.00057730
H         8.64447468     7.68997440     6.73097032     0.00085961     0.00028229     0.00096099
O         9.05618129    10.17462156     7.03292910     0.00007365     0.00015408    -0.00003870
H         8.94842179    11.13451790     7.06153794     0.00001899     0.00027241     0.00021101
H         8.81871307     9.89305002     7.91425843    -0.00017880     0.00031890    -0.00012507
     9
  Step:    22            Position(A)                                  Velocity(au)
C         6.78916796     7.56685021     7.51013472    -0.00027938     0.00018399    -0.00002763
N         8.05926224     7.28115557     7.50544377     0.00027346    -0.00040057    -0.00008364
H         6.29562026     7.92357116     6.57035108    -0.00179996    -0.00009639    -0.00013899
H         6.10982066     7.38551053     8.41127546    -0.00019192    -0.00028730     0.00057989
H         8.62076202     7.08139642     8.34923294    -0.00034167     0.00045011     0.00059082
H         8.64683164     7.69074325     6.73360631     0.00086420     0.00028017     0.00096641
O         9.05638059    10.17504121     7.03282357     0.00007211     0.00015288    -0.00003848
H         8.94848740    11.13525124     7.06210649     0.00002912     0.00026344     0.00020457
H         8.81823647     9.89395153     7.91393161    -0.00016980     0.00034014    -0.00011379
     9
  Step:    23            Position(A)                                  Velocity(au)
C         6.78838021     7.56735824     7.51006272    -0.00029646     0.00018751    -0.00002507
N         8.06003360     7.28005802     7.50521234     0.00029034    -0.00040208    -0.00008557
H         6.29065535     7.92330666     6.56995947    -0.00183025    -0.00009765    -0.00014623
H         6.10928836     7.38473384     8.41283132    -0.00019688    -0.00028064     0.00055736
H         8.61983477     7.08260321     8.35086697    -0.00033660     0.00043241     0.00060412
H         8.64920117     7.69150670     6.73625585     0.00086881     0.00027835     0.00097088
O         9.05657565    10.17545771     7.03271864     0.00007055     0.00015178    -0.00003825
H         8.94858106    11.13595871     7.06265677     0.00003949     0.00025354     0.00019764
H         8.81778438     9.89491032     7.91363606    -0.00016087     0.00036079    -0.00010221
     9
  Step:    24            Position(A)                                  Velocity(au)
C         6.78754655     7.56787576     7.50999761    -0.00031294     0.00019094    -0.00002260
N         8.06085015     7.27895651     7.50497576     0.00030649    -0.00040345    -0.00008741
H         6.28561022     7.92303709     6.56955131    -0.00185861    -0.00010010    -0.00015109
H         6.10874387     7.38397562     8.41432381    -0.00020087    -0.00027379     0.00053359
H         8.61892107     7.08376137     8.35253703    -0.00033178     0.00041453     0.00061713
H         8.65158339     7.69226561     6.73891630     0.00087349     0.00027685     0.00097438
O         9.05676644    10.17587132     7.03261436     0.00006898     0.00015077    -0.00003801
H         8.94870340    11.13663791     7.06318742     0.00005010     0.00024280     0.00019021
H         8.81735665     9.89592477     7.91337261    -0.00015199     0.00038084    -0.00009032
     9
  Step:    25            Position(A)                                  Velocity(au)
C         6.78666869     7.56840252     7.50993912    -0.00032877     0.00019426    -0.00002023
N         8.06170988     7.27785145     7.50473427     0.00032191    -0.00040468    -0.00008916
H         6.28049018     7.92275917     6.56913312    -0.00188502    -0.00010375    -0.00015357
H         6.10818978     7.38323641     8.41574964    -0.00020394    -0.00026675     0.00050866
H         8.61802021     7.08487040     8.35424221    -0.00032723     0.00039649     0.00062977
H         8.65397849     7.69302087     6.74158499     0.00087825     0.00027569     0.00097690
O         9.05695292    10.17628229     7.03251076     0.00006740     0.00014984    -0.00003775
H         8.94885506    11.13728663     7.06369705     0.00006093     0.00023130     0.00018226
H         8.81695313     9.89699321     7.91314205    -0.00014316     0.00040028    -0.00007816
     9
  Step:    26            Position(A)                                  Velocity(au)
C         6.78574842     7.56893822     7.50988697    -0.00034394     0.00019748    -0.00001796
N         8.06261076     7.27674322     7.50448813     0.00033657    -0.00040576    -0.00009081
H         6.27530062     7.92246966     6.56871140    -0.00190945    -0.00010858    -0.00015368
H         6.10762850     7.38251671     8.41710577    -0.00020616    -0.00025953     0.00048265
H         8.61713138     7.08592987     8.35598138    -0.00032300     0.00037829     0.00064196
H         8.65638674     7.69377343     6.74425919     0.00088311     0.00027488     0.00097842
O         9.05713508    10.17669084     7.03240788     0.00006582     0.00014900    -0.00003748
H         8.94903664    11.13790292     7.06418424     0.00007198     0.00021913     0.00017380
H         8.81657369     9.89811398     7.91294514    -0.00013437     0.00041911    -0.00006573
     9
  Step:    27            Position(A)                                  Velocity(au)
C         6.78478760     7.56948256     7.50984089    -0.00035842     0.00020058    -0.00001580
N         8.06355066     7.27563226     7.50423761     0.00035045    -0.00040668    -0.00009236
H         6.27004696     7.92216533     6.56829261    -0.00193189    -0.00011458    -0.00015145
H         6.10706227     7.38181699     8.41838937    -0.00020759    -0.00025214     0.00045566
H         8.61625364     7.08693937     8.35775322    -0.00031914     0.00035995     0.00065363
H         8.65880842     7.69452426     6.74693621     0.00088809     0.00027443     0.00097895
O         9.05731289    10.17709720     7.03230577     0.00006422     0.00014823    -0.00003719
H         8.94924873    11.13848510     7.06464758     0.00008324     0.00020640     0.00016481
H         8.81621823     9.89928540     7.91278254    -0.00012562     0.00043732    -0.00005307
     9
  Step:    28            Position(A)                                  Velocity(au)
C         6.78378815     7.57003522     7.50980056    -0.00037218     0.00020356    -0.00001375
N         8.06452745     7.27451899     7.50398301     0.00036354    -0.00040745    -0.00009379
H         6.26473465     7.92184298     6.56788311    -0.00195234    -0.00012175    -0.00014690
H         6.10649315     7.38113769     8.41959787    -0.00020830    -0.00024460     0.00042777
H         8.61538594     7.08789851     8.35955621    -0.00031568     0.00034146     0.00066470
H         8.66124389     7.69527434     6.74961330     0.00089319     0.00027434     0.00097849
O         9.05748631    10.17750156     7.03220450     0.00006261     0.00014753    -0.00003687
H         8.94949189    11.13903175     7.06508561     0.00009469     0.00019321     0.00015529
H         8.81588663     9.90050578     7.91265487    -0.00011690     0.00045491    -0.00004020
     9
  Step:    29            Position(A)                                  Velocity(au)
C         6.78275209     7.57059586     7.50976566    -0.00038519     0.00020641    -0.00001183
N         8.06553894     7.27340384     7.50372463     0.00037582    -0.00040805    -0.00009512
H         6.25936918     7.92149945     6.56748919    -0.00197078    -0.00013006    -0.00014008
H         6.10592304     7.38047922     8.42072896    -0.00020834    -0.00023692     0.00039908
H         8.61452713     7.08880691     8.36138862    -0.00031265     0.00032285     0.00067511
H         8.66369351     7.69602471     6.75228778     0.00089844     0.00027464     0.00097704
O         9.05765532    10.17790410     7.03210410     0.00006099     0.00014690    -0.00003654
H         8.94976663    11.13954178     7.06549690     0.00010634     0.00017966     0.00014524
H         8.81557885     9.90177343     7.91256266    -0.00010821     0.00047189    -0.00002715
     9
  Step:    30            Position(A)                                  Velocity(au)
C         6.78168144     7.57116413     7.50973588    -0.00039745     0.00020913    -0.00001002
N         8.06658290     7.27228726     7.50346278     0.00038729    -0.00040849    -0.00009632
H         6.25395603     7.92113165     6.56711698    -0.00198722    -0.00013949    -0.00013105
H         6.10535367     7.37984194     8.42178055    -0.00020779    -0.00022910     0.00036968
H         8.61367597     7.08966424     8.36324854    -0.00031010     0.00030411     0.00068478
H         8.66615765     7.69677639     6.75495698     0.00090382     0.00027531     0.00097463
O         9.05781989    10.17830498     7.03200466     0.00005937     0.00014631    -0.00003618
H         8.95007347    11.14001437     7.06587998     0.00011816     0.00016588     0.00013466
H         8.81529483     9.90308667     7.91250636    -0.00009952     0.00048826    -0.00001396
     9
  Step:    31            Position(A)                                  Velocity(au)
C         6.78057832     7.57173965     7.50971086    -0.00040894     0.00021172    -0.00000834
N         8.06765711     7.27116972     7.50319780     0.00039793    -0.00040876    -0.00009741
H         6.24850065     7.92073654     6.56677247    -0.00200167    -0.00015002    -0.00011985