     6
  Step:  1000            Position(A)                                  Velocity(au)
C        -0.72207154    -0.02267558    -0.08024988    -0.00006657    -0.00016326     0.00010454
C         0.68028852     0.00726959    -0.05032136     0.00008088     0.00014866     0.00004762
H        -1.43661117     0.75108182    -0.45120111     0.00069703     0.00044338    -0.00137293
H        -1.33514337    -0.59413812     0.66454106    -0.00020031     0.00021604     0.00030475
H         1.29016909     0.67352533     0.63043200    -0.00003487    -0.00027915     0.00057356
H         1.42199320    -0.61688998    -0.58909988    -0.00063240    -0.00020623    -0.00131843
