     6
  Step:     0            Position(A)                                  Velocity(au)
C        -0.69284974     0.00000000     0.00000000     0.00000000     0.00000000     0.00000000
C         0.66284974     0.00000000     0.00000000     0.00000000     0.00000000     0.00000000
H        -1.03381877     0.72280451    -0.32280655     0.00000000     0.00000000     0.00000000
H        -1.23381879    -0.72280451    -0.34280655     0.00000000     0.00000000     0.00000000
H         1.03381877     0.75280451    -0.32280655     0.00000000     0.00000000     0.00000000
H         1.03381877    -0.72280451    -0.31280655     0.00000000     0.00000000     0.00000000
     6
  Step:     1            Position(A)                                  Velocity(au)
C        -0.69283980    -0.00005400     0.00004745     0.00000709    -0.00003925     0.00003455
C         0.66282462     0.00001653     0.00005464    -0.00001815     0.00001201     0.00003978
H        -1.03427973     0.72385706    -0.32324705    -0.00033539     0.00076609    -0.00032066
H        -1.23406159    -0.72321669    -0.34292045    -0.00017715    -0.00030074    -0.00008298
H         1.03422089     0.75356542    -0.32306940     0.00029314     0.00055438    -0.00019134
H         1.03430126    -0.72375935    -0.31320576     0.00035123    -0.00069515    -0.00029073
     6
  Step:     2            Position(A)                                  Velocity(au)
C        -0.69281098    -0.00021467     0.00018894     0.00001345    -0.00007755     0.00006849
C         0.66275048     0.00006569     0.00021758    -0.00003543     0.00002371     0.00007886
H        -1.03565309     0.72699446    -0.32456032    -0.00066393     0.00151759    -0.00063536
H        -1.23478767    -0.72444935    -0.34326040    -0.00035261    -0.00059867    -0.00016471
H         1.03542201     0.75583655    -0.32385301     0.00058246     0.00110037    -0.00037913
H         1.03573975    -0.72660646    -0.31439660     0.00069601    -0.00137774    -0.00057655
     6
  Step:     3            Position(A)                                  Velocity(au)
C        -0.69276625    -0.00047811     0.00042201     0.00001840    -0.00011400     0.00010125
C         0.66263085     0.00014619     0.00048592    -0.00005102     0.00003480     0.00011656
H        -1.03791091     0.73215712    -0.32672201    -0.00097919     0.00224077    -0.00093855
H        -1.23599008    -0.72649095    -0.34382130    -0.00052474    -0.00089102    -0.00024396
H         1.03740652     0.75958360    -0.32514293     0.00086435     0.00162994    -0.00055998
H         1.03810789    -0.73129455    -0.31635903     0.00102822    -0.00203592    -0.00085286
     6
  Step:     4            Position(A)                                  Velocity(au)
C        -0.69271034    -0.00083816     0.00074269     0.00002135    -0.00014786     0.00013232
C         0.66247146     0.00025602     0.00085504    -0.00006418     0.00004506     0.00015228
H        -1.04100848     0.73924973    -0.32969346    -0.00127549     0.00292355    -0.00122540
H        -1.23765757    -0.72932252    -0.34459468    -0.00069201    -0.00117514    -0.00031954
H         1.04014931     0.76475107    -0.32691565     0.00113550     0.00213577    -0.00073077
H         1.04136330    -0.73774136    -0.31906111     0.00134240    -0.00265914    -0.00111565
     6
  Step:     5            Position(A)                                  Velocity(au)
C        -0.69264949    -0.00128680     0.00114572     0.00002180    -0.00017855     0.00016130
C         0.66227983     0.00039262     0.00131878    -0.00007432     0.00005432     0.00018553
H        -1.04488687     0.74814671    -0.33342402    -0.00154824     0.00355609    -0.00149210
H        -1.23977482    -0.73291808    -0.34556891    -0.00085303    -0.00144859    -0.00039032
H         1.04361684     0.77126462    -0.32913966     0.00139310     0.00261152    -0.00088878
H         1.04544979    -0.74583802    -0.32246075     0.00163402    -0.00323869    -0.00136161
     6
  Step:     6            Position(A)                                  Velocity(au)
C        -0.69259113    -0.00181470     0.00162485     0.00001938    -0.00020568     0.00018785
C         0.66206498     0.00055311     0.00186975    -0.00008097     0.00006251     0.00021592
H        -1.04947613     0.75869882    -0.33785409    -0.00179402     0.00413106    -0.00173588
H        -1.24232296    -0.73724519    -0.34672943    -0.00100655    -0.00170912    -0.00045532
H         1.04776852     0.77903405    -0.33177660     0.00163485     0.00305199    -0.00103181
H         1.05030010    -0.75545449    -0.32650808     0.00189958    -0.00376789    -0.00158832
     6
  Step:     7            Position(A)                                  Velocity(au)
C        -0.69254349    -0.00241170     0.00217311     0.00001387    -0.00022906     0.00021177
C         0.66183700     0.00073448     0.00249969    -0.00008382     0.00006961     0.00024318
H        -1.05469878     0.77074044    -0.34291795    -0.00201067     0.00464375    -0.00195513
H        -1.24527990    -0.74226567    -0.34805914    -0.00115155    -0.00195477    -0.00051364
H         1.05255819     0.78795664    -0.33478289     0.00185902     0.00345324    -0.00115818
H         1.05583901    -0.76644546    -0.33114766     0.00213669    -0.00424223    -0.00179423
     6
  Step:     8            Position(A)                                  Velocity(au)
C        -0.69251526    -0.00306745     0.00278307     0.00000517    -0.00024868     0.00023295
C         0.66160657     0.00093381     0.00319973    -0.00008272     0.00007569     0.00026715
H        -1.06047296     0.78409654    -0.34854713    -0.00219716     0.00509186    -0.00214932
H        -1.24862108    -0.74793627    -0.34953862    -0.00128723    -0.00218383    -0.00056450
H         1.05793594     0.79792061    -0.33811094     0.00206454     0.00381258    -0.00126670
H         1.06198616    -0.77865623    -0.33632113     0.00234400    -0.00465927    -0.00197866
     6
  Step:     9            Position(A)                                  Velocity(au)
C        -0.69251523    -0.00377180     0.00344714    -0.00000671    -0.00026471     0.00025135
C         0.66138458     0.00114847     0.00396079    -0.00007767     0.00008088     0.00028780
H        -1.06671553     0.79858897    -0.35467305    -0.00235345     0.00547522    -0.00231881
H        -1.25232005    -0.75420956    -0.35114651    -0.00141300    -0.00239494    -0.00060728
H         1.06384962     0.80880854    -0.34171073     0.00225085     0.00412854    -0.00135672
H         1.06865889    -0.79192808    -0.34196941     0.00252109    -0.00501838    -0.00214172
     6
  Step:    10            Position(A)                                  Velocity(au)
C        -0.69255196    -0.00451519     0.00415777    -0.00002163    -0.00027739     0.00026704
C         0.66118176     0.00137619     0.00477376    -0.00006879     0.00008534     0.00030517
H        -1.07334449     0.81404175    -0.36122926    -0.00248033     0.00579539    -0.00246473
H        -1.25634910    -0.76103475    -0.35285998    -0.00152852    -0.00258702    -0.00064151
H         1.07024637     0.82050052    -0.34553115     0.00241795     0.00440069    -0.00142808
H         1.07577457    -0.80610292    -0.34803466     0.00266834    -0.00532050    -0.00228412
     6
  Step:    11            Position(A)                                  Velocity(au)
C        -0.69263353    -0.00528893     0.00490762    -0.00003937    -0.00028710     0.00028011
C         0.66100835     0.00161519     0.00562982    -0.00005631     0.00008923     0.00031939
H        -1.08028102     0.83028530    -0.36815322    -0.00257925     0.00605530    -0.00258871
H        -1.26067989    -0.76835854    -0.35465505    -0.00163367    -0.00275928    -0.00066684
H         1.07707394     0.83287693    -0.34952124     0.00256626     0.00462960    -0.00148102
H         1.08325268    -0.82102709    -0.35446177     0.00278683    -0.00556777    -0.00240709
     6
  Step:    12            Position(A)                                  Velocity(au)
C        -0.69276730    -0.00608541     0.00568975    -0.00005965    -0.00029423     0.00029072
C         0.66087379     0.00186422     0.00652057    -0.00004056     0.00009276     0.00033065
H        -1.08745098     0.84715955    -0.37538752    -0.00265211     0.00625881    -0.00269275
H        -1.26528401    -0.77612591    -0.35650709    -0.00172848    -0.00291127    -0.00068314
H         1.08428182     0.84582084    -0.35363122     0.00269652     0.00481657    -0.00151616
H         1.09101639    -0.83655435    -0.36119961     0.00287812    -0.00576330    -0.00251219
     6
  Step:    13            Position(A)                                  Velocity(au)
C        -0.69295976    -0.00689816     0.00649763    -0.00008211    -0.00029921     0.00029904
C         0.66078653     0.00212251     0.00743820    -0.00002192     0.00009609     0.00033916
H        -1.09478600     0.86451615    -0.38288050    -0.00270113     0.00641042    -0.00277898
H        -1.27013333    -0.78428096    -0.35839129    -0.00181313    -0.00304278    -0.00069041
H         1.09182184     0.85921984    -0.35781348     0.00280973     0.00496353    -0.00153441
H         1.09899378    -0.85254791    -0.36820153     0.00294415    -0.00591078    -0.00260112
     6
  Step:    14            Position(A)                                  Velocity(au)
C        -0.69321638    -0.00772187     0.00732528    -0.00010639    -0.00030245     0.00030527
C         0.66075391     0.00238977     0.00837554    -0.00000082     0.00009939     0.00034519
H        -1.10222406     0.88221959    -0.39058642    -0.00272868     0.00651489    -0.00284954
H        -1.27520043    -0.79276759    -0.36028310    -0.00188792    -0.00315386    -0.00068884
H         1.09964889     0.87296749    -0.36202327     0.00290702     0.00507281    -0.00153693
H         1.10711863    -0.86888175    -0.37542574     0.00298710    -0.00601423    -0.00267563
     6
  Step:    15            Position(A)                                  Velocity(au)
C        -0.69354162    -0.00855231     0.00816724    -0.00013210    -0.00030431     0.00030960
C         0.66078205     0.00266610     0.00932611     0.00002230     0.00010278     0.00034897
H        -1.10970977     0.90014758    -0.39846528    -0.00273719     0.00657703    -0.00290642
H        -1.28045880    -0.80153015    -0.36215871    -0.00195317    -0.00324478    -0.00067877
H         1.10772101     0.88696420    -0.36621931     0.00298954     0.00514703    -0.00152506
H         1.11533089    -0.88544111    -0.38283518     0.00300923    -0.00607779    -0.00273740
     6
  Step:    16            Position(A)                                  Velocity(au)
C        -0.69393887    -0.00938622     0.00901857    -0.00015887    -0.00030514     0.00031222
C         0.66087587     0.00295190     0.01028416     0.00004701     0.00010635     0.00035078
H        -1.11719437     0.91819086    -0.40648229    -0.00272905     0.00660151    -0.00295142
H        -1.28588279    -0.81051406    -0.36399547    -0.00200922    -0.00331603    -0.00066070
H         1.11599939     0.90111775    -0.37036418     0.00305842     0.00518892    -0.00150027
H         1.12357681    -0.90212259    -0.39039723     0.00301288    -0.00610556    -0.00278798
     6
  Step:    17            Position(A)                                  Velocity(au)
C        -0.69441055    -0.01022120     0.00987484    -0.00018637    -0.00030521     0.00031331
C         0.66103914     0.00324775     0.01124461     0.00007290     0.00011015     0.00035085
H        -1.12463555     0.93625276    -0.41460725    -0.00270655     0.00659281    -0.00298609
H        -1.29144769    -0.81966627    -0.36577225    -0.00205638    -0.00336824    -0.00063524
H         1.12444821     0.91534357    -0.37442465     0.00311471     0.00520129    -0.00146411
H         1.13180899    -0.91883382    -0.39808326     0.00300031    -0.00610148    -0.00282872
     6
  Step:    18            Position(A)                                  Velocity(au)
C        -0.69495816    -0.01105551     0.01073211    -0.00021427    -0.00030476     0.00031303
C         0.66127458     0.00355435     0.01220305     0.00009961     0.00011422     0.00034942
H        -1.13199710     0.95424844    -0.42281391    -0.00267184     0.00655508    -0.00301177
H        -1.29712960    -0.82893574    -0.36746973    -0.00209493    -0.00340220    -0.00060305
H         1.13303443     0.92956477    -0.37837173     0.00315938     0.00518691    -0.00141811
H         1.13998618    -0.93549298    -0.40586813     0.00297371    -0.00606930    -0.00286082
     6
  Step:    19            Position(A)                                  Velocity(au)
C        -0.69558246    -0.01188798     0.01158686    -0.00024234    -0.00030395     0.00031154
C         0.66158394     0.00387242     0.01315565     0.00012683     0.00011854     0.00034669
H        -1.13924844     0.97210399    -0.43107933    -0.00262687     0.00649214    -0.00302956
H        -1.30290532    -0.83827370    -0.36907046    -0.00212511    -0.00341880    -0.00056484
H         1.14172759     0.94371198    -0.38218063     0.00319333     0.00514848    -0.00136377
H         1.14807289    -0.95202819    -0.41372973     0.00293511    -0.00601248    -0.00288528
     6
  Step:    20            Position(A)                                  Velocity(au)
C        -0.69628356    -0.01271788     0.01243598    -0.00005190    -0.00005815     0.00005931
C         0.66196822     0.00420268     0.01409916     0.00002962     0.00002363     0.00006582
H        -1.14636407     0.98975544    -0.43938329    -0.00049401     0.00123002    -0.00058365
H        -1.30875233    -0.84763393    -0.37055897    -0.00041219    -0.00065634    -0.00010008
H         1.15049946     0.95772299    -0.38583050     0.00061762     0.00097684    -0.00025003
H         1.15603895    -0.96837661    -0.42164838     0.00055408    -0.00113918    -0.00055727
     6
  Step:    21            Position(A)                                  Velocity(au)
C        -0.69646369    -0.01287541     0.01259396    -0.00007981    -0.00005705     0.00005615
C         0.66208683     0.00427371     0.01427319     0.00005712     0.00002834     0.00006138
H        -1.14763659     0.99298942    -0.44098964    -0.00043604     0.00113349    -0.00059060
H        -1.30990419    -0.84941813    -0.37076971    -0.00042949    -0.00064712    -0.00005363
H         1.15221472     0.96029844    -0.38642606     0.00063599     0.00090501    -0.00018503
H         1.15748111    -0.97137115    -0.42319207     0.00049989    -0.00104923    -0.00057116
     6
  Step:    22            Position(A)                                  Velocity(au)
C        -0.69672006    -0.01302990     0.01274305    -0.00010764    -0.00005593     0.00005281
C         0.66228063     0.00435766     0.01443484     0.00008459     0.00003307     0.00005677
H        -1.14874889     0.99595477    -0.44261340    -0.00037691     0.00103371    -0.00059641
H        -1.31110129    -0.85117320    -0.37085227    -0.00044527    -0.00063510    -0.00000636
H         1.15397783     0.96267269    -0.38684249     0.00065267     0.00082985    -0.00011908
H         1.15877297    -0.97411507    -0.42477220     0.00044425    -0.00095604    -0.00058395
     6
  Step:    23            Position(A)                                  Velocity(au)
C        -0.69705240    -0.01318130     0.01288279    -0.00013536    -0.00005479     0.00004931
C         0.66254945     0.00445457     0.01458370     0.00011197     0.00003781     0.00005202
H        -1.14969801     0.99864301    -0.44425156    -0.00031679     0.00093098    -0.00060117
H        -1.31233949    -0.85289163    -0.37080450    -0.00045955    -0.00062041     0.00004166
H         1.15578429     0.96483709    -0.38707736     0.00066773     0.00075169    -0.00005231
H         1.15991081    -0.97659996    -0.42638581     0.00038733    -0.00085993    -0.00059568
     6
  Step:    24            Position(A)                                  Velocity(au)
C        -0.69746036    -0.01332956     0.01301275    -0.00016293    -0.00005363     0.00004567
C         0.66289300     0.00456445     0.01471936     0.00013923     0.00004255     0.00004713
H        -1.15048146     1.00104651    -0.44590131    -0.00025583     0.00082561    -0.00060492
H        -1.31361469    -0.85456638    -0.37062443    -0.00047234    -0.00060324     0.00009036
H         1.15762981     0.96678387    -0.38712860     0.00068126     0.00067085     0.00001516
H         1.16089139    -0.97881824    -0.42803011     0.00032932    -0.00076120    -0.00060641
     6
  Step:    25            Position(A)                                  Velocity(au)
C        -0.69794348    -0.01347461     0.01313255    -0.00019031    -0.00005245     0.00004189
C         0.66331091     0.00468728     0.01484148     0.00016633     0.00004727     0.00004212
H        -1.15109719     1.00315848    -0.44756000    -0.00019420     0.00071790    -0.00060773
H        -1.31492284    -0.85619087    -0.37031031    -0.00048367    -0.00058373     0.00013966
H         1.15951026     0.96850613    -0.38699444     0.00069333     0.00058765     0.00008321
H         1.16171193    -0.98076316    -0.42970242     0.00027037    -0.00066015    -0.00061619
     6
  Step:    26            Position(A)                                  Velocity(au)
C        -0.69850123    -0.01361639     0.01324183    -0.00021749    -0.00005124     0.00003798
C         0.66380268     0.00482299     0.01494974     0.00019323     0.00005196     0.00003700
H        -1.15154356     1.00497287    -0.44922510    -0.00013203     0.00060812    -0.00060963
H        -1.31625997    -0.85775896    -0.36986061    -0.00049354    -0.00056208     0.00018949
H         1.16142178     0.96999784    -0.38667350     0.00070402     0.00050240     0.00015170
H         1.16237009    -0.98242877    -0.43140019     0.00021064    -0.00055706    -0.00062505
     6
  Step:    27            Position(A)                                  Velocity(au)
C        -0.69913299    -0.01375483     0.01334026    -0.00024443    -0.00005000     0.00003396
C         0.66436773     0.00497146     0.01504386     0.00021990     0.00005660     0.00003179
H        -1.15181931     1.00648445    -0.45089419    -0.00006948     0.00049656    -0.00061068
H        -1.31762214    -0.85926501    -0.36927397    -0.00050201    -0.00053844     0.00023977
H         1.16336071     0.97125387    -0.38616474     0.00071341     0.00041542     0.00022052
H         1.16286396    -0.98380988    -0.43312098     0.00015028    -0.00045222    -0.00063305
     6
  Step:    28            Position(A)                                  Velocity(au)
C        -0.69983805    -0.01388984     0.01342755    -0.00027109    -0.00004872     0.00002983
C         0.66500537     0.00513255     0.01512360     0.00024631     0.00006118     0.00002649
H        -1.15192357     1.00768867    -0.45256504    -0.00000668     0.00038347    -0.00061093
H        -1.31900556    -0.86070384    -0.36854927    -0.00050910    -0.00051302     0.00029043
H         1.16532360     0.97226986    -0.38546740     0.00072158     0.00032701     0.00028956
H         1.16319203    -0.98490205    -0.43486248     0.00008946    -0.00034589    -0.00064022
     6
  Step:    29            Position(A)                                  Velocity(au)
C        -0.70061563    -0.01402132     0.01350342    -0.00029745    -0.00004741     0.00002562
C         0.66571486     0.00530607     0.01518875     0.00027242     0.00006568     0.00002112
H        -1.15185586     1.00858175    -0.45423553     0.00005622     0.00026913    -0.00061045
H        -1.32040651    -0.86207081    -0.36768555    -0.00051486    -0.00048598     0.00034139
H         1.16730721     0.97304235    -0.38458105     0.00072861     0.00023748     0.00035871
H         1.16335321    -0.98570160    -0.43662250     0.00002830    -0.00023833    -0.00064662
     6
  Step:    30            Position(A)                                  Velocity(au)
C        -0.70146487    -0.01414915     0.01356765    -0.00032348    -0.00004606     0.00002132
C         0.66649530     0.00549178     0.01523913     0.00029820     0.00007009     0.00001570
H        -1.15161609     1.00916062    -0.45590373     0.00011910     0.00015380    -0.00060927
H        -1.32182142    -0.86336176    -0.36668210    -0.00051934    -0.00045752     0.00039258
H         1.16930852     0.97356867    -0.38350552     0.00073458     0.00014713     0.00042786
H         1.16334681    -0.98620554    -0.43839897    -0.00003304    -0.00012982    -0.00065227
     6
  Step:    31            Position(A)                                  Velocity(au)
C        -0.70238483    -0.01427322     0.01362003    -0.00034915    -0.00004465     0.00001696
C         0.66734576     0.00568942     0.01527461     0.00032361     0.00007440     0.00001023
H        -1.15120449     1.00942289    -0.45756778     0.00018182     0.00003771    -0.00060745
H        -1.32324688    -0.86457307    -0.36553841    -0.00052259    -0.00042782     0.00044392
H         1.17132481     0.97384703    -0.38224101     0.00073960     0.00005627     0.00049688
H         1.16317252    -0.98641161    -0.44018994    -0.00009442    -0.00002061    -0.00065724
     6
  Step:    32            Position(A)                                  Velocity(au)
C        -0.70337447    -0.01439337     0.01366038    -0.00037443    -0.00004320     0.00001253
C         0.66826519     0.00589868     0.01529506     0.00034862     0.00007859     0.00000472
H        -1.15062168     1.00936689    -0.45922602     0.00024426    -0.00007885    -0.00060506
H        -1.32467961    -0.86570162    -0.36425418    -0.00052469    -0.00039708     0.00049533
H         1.17335354     0.97387644    -0.38078799     0.00074374    -0.00003479     0.00056567
H         1.16283040    -0.98631826    -0.44199359    -0.00015571     0.00008904    -0.00066157
     6
  Step:    33            Position(A)                                  Velocity(au)
C        -0.70443268    -0.01450947     0.01368858    -0.00039929    -0.00004169     0.00000807
C         0.66925244     0.00611922     0.01530043     0.00037320     0.00008264    -0.00000080
H        -1.14986860     1.00899162    -0.46087697     0.00030628    -0.00019565    -0.00060214
H        -1.32611655    -0.86674482    -0.36282932    -0.00052571    -0.00036549     0.00054673
H         1.17539248     0.97365676    -0.37914722     0.00074711    -0.00012574     0.00063413
H         1.16232090    -0.98592461    -0.44380824    -0.00021677     0.00019889    -0.00066531
     6
  Step:    34            Position(A)                                  Velocity(au)
C        -0.70555827    -0.01462137     0.01370451    -0.00042369    -0.00004012     0.00000357
C         0.67030628     0.00635066     0.01529068     0.00039730     0.00008655    -0.00000633
H        -1.14894656     1.00829681    -0.46251927     0.00036776    -0.00031243    -0.00059877
H        -1.32755482    -0.86770059    -0.36126400    -0.00052571    -0.00033324     0.00059804
H         1.17743967     0.97318872    -0.37731981     0.00074982    -0.00021627     0.00070213
H         1.16164485    -0.98523050    -0.44563234    -0.00027745     0.00030866    -0.00066852
     6
  Step:    35            Position(A)                                  Velocity(au)
C        -0.70674994    -0.01472888     0.01370811    -0.00044761    -0.00003849    -0.00000094
C         0.67142538     0.00659257     0.01526581     0.00042091     0.00009030    -0.00001185
H        -1.14785724     1.00728289    -0.46415180     0.00042857    -0.00042891    -0.00059503
H        -1.32899177    -0.86856738    -0.35955852    -0.00052478    -0.00030051     0.00064918
H         1.17949344     0.97247391    -0.37530713     0.00075198    -0.00030607     0.00076956
H         1.16080344    -0.98423648    -0.44746454    -0.00033764     0.00041811    -0.00067126
     6
  Step:    36            Position(A)                                  Velocity(au)
C        -0.70800632    -0.01483185     0.01369935    -0.00047100    -0.00003679    -0.00000546
C         0.67260832     0.00684451     0.01522587     0.00044397     0.00009387    -0.00001735
H        -1.14660264     1.00595098    -0.46577362     0.00048857    -0.00054485    -0.00059098
H        -1.33042495    -0.86934417    -0.35771349    -0.00052300    -0.00026751     0.00070007
H         1.18155242     0.97151478    -0.37311089     0.00075370    -0.00039479     0.00083632
H         1.15979824    -0.98294377    -0.44930361    -0.00039718     0.00052697    -0.00067359
     6
  Step:    37            Position(A)                                  Velocity(au)
C        -0.70932596    -0.01493010     0.01367823    -0.00049385    -0.00003503    -0.00000998
C         0.67385357     0.00710599     0.01517094     0.00046646     0.00009726    -0.00002280
H        -1.14518514     1.00430296    -0.46738401     0.00054764    -0.00065997    -0.00058672
H        -1.33185217    -0.87003046    -0.35572965    -0.00052046    -0.00023442     0.00075066
H         1.18361559     0.97031468    -0.37073311     0.00075510    -0.00048213     0.00090228
H         1.15863120    -0.98135435    -0.45114858    -0.00045593     0.00063498    -0.00067561
     6
  Step:    38            Position(A)                                  Velocity(au)
C        -0.71070730    -0.01502346     0.01364479    -0.00051611    -0.00003321    -0.00001447
C         0.67515951     0.00737647     0.01510115     0.00048834     0.00010046    -0.00002820
H        -1.14360748     1.00234145    -0.46898253     0.00060564    -0.00077399    -0.00058234
H        -1.33327148    -0.87062628    -0.35360798    -0.00051727    -0.00020144     0.00080084
H         1.18568226     0.96887788    -0.36817611     0.00075632    -0.00056775     0.00096733
H         1.15730466    -0.97947092    -0.45299866    -0.00051376     0.00074187    -0.00067737
     6
  Step:    39            Position(A)                                  Velocity(au)
C        -0.71214869    -0.01511175     0.01359911    -0.00053775    -0.00003133    -0.00001892
C         0.67652440     0.00765542     0.01501668     0.00050956     0.00010344    -0.00003353
H        -1.14187276     1.00006983    -0.47056895     0.00066244    -0.00088663    -0.00057793
H        -1.33468123    -0.87113216    -0.35134968    -0.00051351    -0.00016874     0.00085055
H         1.18775210     0.96720955    -0.36544255     0.00075750    -0.00065129     0.00103136
H         1.15582132    -0.97729689    -0.45485327    -0.00057054     0.00084737    -0.00067897
     6
  Step:    40            Position(A)                                  Velocity(au)
C        -0.71364838    -0.01519482     0.01354132    -0.00036890    -0.00001941    -0.00001539
C         0.67794643     0.00794223     0.01491775     0.00034999     0.00007012    -0.00002560
H        -1.13998444     0.99749229    -0.47214337     0.00047398    -0.00065864    -0.00037872
H        -1.33608000    -0.87154917    -0.34895615    -0.00033626    -0.00009014     0.00059402
H         1.18982519     0.96531581    -0.36253539     0.00050097    -0.00048357     0.00072246
H         1.15418425    -0.97483646    -0.45671210    -0.00041338     0.00062801    -0.00044929
     6
  Step:    41            Position(A)                                  Velocity(au)
C        -0.71468542    -0.01524520     0.01349326    -0.00038932    -0.00001742    -0.00001973
C         0.67893112     0.00813761     0.01484066     0.00036993     0.00007270    -0.00003075
H        -1.13861340     0.99554070    -0.47317325     0.00052823    -0.00076796    -0.00037458
H        -1.33699350    -0.87175202    -0.34726491    -0.00033175    -0.00005848     0.00064267
H         1.19119699     0.96388426    -0.36047458     0.00050244    -0.00056241     0.00078429
H         1.15297870    -0.97297837    -0.45794284    -0.00046784     0.00073021    -0.00045086
     6
  Step:    42            Position(A)                                  Velocity(au)
C        -0.71577765    -0.01529010     0.01343339    -0.00040925    -0.00001541    -0.00002402
C         0.67996964     0.00833982     0.01474960     0.00038935     0.00007511    -0.00003580
H        -1.13709545     0.99329212    -0.47419203     0.00058136    -0.00087569    -0.00037067
H        -1.33789442    -0.87186903    -0.34544124    -0.00032711    -0.00002745     0.00069084
H         1.19257315     0.96223984    -0.35824591     0.00050421    -0.00063910     0.00084518
H         1.15162551    -0.97084275    -0.45917794    -0.00052129     0.00083085    -0.00045254
     6
  Step:    43            Position(A)                                  Velocity(au)
C        -0.71692371    -0.01532945     0.01336191    -0.00042866    -0.00001336    -0.00002822
C         0.68106054     0.00854839     0.01464483     0.00040821     0.00007735    -0.00004076
H        -1.13543380     0.99075132    -0.47520053     0.00063326    -0.00098154    -0.00036712
H        -1.33878253    -0.87190217    -0.34348654    -0.00032243     0.00000276     0.00073847
H         1.19395464     0.96038888    -0.35585209     0.00050641    -0.00071330     0.00090502
H         1.15012767    -0.96843428    -0.46041786    -0.00057356     0.00092962    -0.00045443
     6
  Step:    44            Position(A)                                  Velocity(au)
C        -0.71812211    -0.01536317     0.01327904    -0.00044752    -0.00001129    -0.00003234
C         0.68220225     0.00876284     0.01452669     0.00042649     0.00007940    -0.00004558
H        -1.13363201     0.98792385    -0.47619987     0.00068378    -0.00108520    -0.00036404
H        -1.33965785    -0.87185394    -0.34140237    -0.00031781     0.00003197     0.00078549
H         1.19534284     0.95833863    -0.35329613     0.00050919    -0.00078468     0.00096370
H         1.14848856    -0.96575843    -0.46166333    -0.00062453     0.00102626    -0.00045666
     6