     6
  Step:     0            Position(A)                                  Velocity(au)
C        -0.69284974     0.00000000     0.00000000     0.00000000     0.00000000     0.00000000
C         0.66284974     0.00000000     0.00000000     0.00000000     0.00000000     0.00000000
H        -1.03381877     0.72280451    -0.32280655     0.00000000     0.00000000     0.00000000
H        -1.23381879    -0.72280451    -0.34280655     0.00000000     0.00000000     0.00000000
H         1.03381877     0.75280451    -0.32280655     0.00000000     0.00000000     0.00000000
H         1.03381877    -0.72280451    -0.31280655     0.00000000     0.00000000     0.00000000
     6
  Step:     1            Position(A)                                  Velocity(au)
C        -0.69278844    -0.00004718     0.00002877     0.00004465    -0.00003427     0.00002090
C         0.66277428     0.00001124     0.00003747    -0.00005498     0.00000814     0.00002724
H        -1.03429694     0.72382758    -0.32310235    -0.00034818     0.00074483    -0.00021489
H        -1.23404307    -0.72321628    -0.34285108    -0.00016359    -0.00030047    -0.00003230
H         1.03419323     0.75354756    -0.32299772     0.00027295     0.00054145    -0.00013902
H         1.03431557    -0.72373066    -0.31306438     0.00036189    -0.00067441    -0.00018737
     6
  Step:     2            Position(A)                                  Velocity(au)
C        -0.69260554    -0.00018745     0.00011429     0.00008859    -0.00006765     0.00004123
C         0.66254905     0.00004452     0.00014897    -0.00010912     0.00001596     0.00005382
H        -1.03572306     0.72687814    -0.32398182    -0.00069030     0.00147621    -0.00042407
H        -1.23471348    -0.72444785    -0.34298322    -0.00032541    -0.00059822    -0.00006356
H         1.03531159     0.75576584    -0.32356690     0.00054227     0.00107504    -0.00027493
H         1.03579804    -0.72649299    -0.31383133     0.00071806    -0.00133718    -0.00037003
     6
  Step:     3            Position(A)                                  Velocity(au)
C        -0.69230393    -0.00041715     0.00025425     0.00013114    -0.00009928     0.00006045
C         0.66217749     0.00009856     0.00033183    -0.00016161     0.00002318     0.00007913
H        -1.03807235     0.73190129    -0.32542170    -0.00102064     0.00218146    -0.00062221
H        -1.23582283    -0.72648809    -0.34319870    -0.00048377    -0.00089060    -0.00009275
H         1.03715900     0.75942718    -0.32450136     0.00080447     0.00159322    -0.00040474
H         1.03824279    -0.73104401    -0.31508817     0.00106306    -0.00197732    -0.00054355
     6
  Step:     4            Position(A)                                  Velocity(au)
C        -0.69188832    -0.00073043     0.00044493     0.00017168    -0.00012844     0.00007811
C         0.66166516     0.00017132     0.00058173    -0.00021173     0.00002955     0.00010260
H        -1.04130515     0.73880904    -0.32738485    -0.00133413     0.00284937    -0.00080465
H        -1.23735933    -0.72931874    -0.34349050    -0.00063702    -0.00117506    -0.00011892
H         1.03971139     0.76447950    -0.32578052     0.00105635     0.00208909    -0.00052576
H         1.04161216    -0.73730741    -0.31680410     0.00139203    -0.00258499    -0.00070399
     6
  Step:     5            Position(A)                                  Velocity(au)
C        -0.69136495    -0.00111964     0.00068144     0.00020970    -0.00015456     0.00009380
C         0.66101948     0.00026018     0.00089296    -0.00025885     0.00003488     0.00012377
H        -1.04536903     0.74748513    -0.32982252    -0.00162661     0.00347068    -0.00096763
H        -1.23930685    -0.73291479    -0.34384907    -0.00078365    -0.00144926    -0.00014117
H         1.04293642     0.77085291    -0.32737686     0.00129511     0.00255665    -0.00063567
H         1.04585610    -0.74518192    -0.31893847     0.00170085    -0.00315196    -0.00084816
     6
  Step:     6            Position(A)                                  Velocity(au)
C        -0.69074141    -0.00157577     0.00095795     0.00024477    -0.00017723     0.00010724
C         0.66024944     0.00036211     0.00125867    -0.00030247     0.00003907     0.00014229
H        -1.05020145     0.75779096    -0.33267705    -0.00189490     0.00403838    -0.00110844
H        -1.24164528    -0.73724506    -0.34426260    -0.00092228    -0.00171104    -0.00015874
H         1.04679466     0.77846243    -0.32925715     0.00151842     0.00299094    -0.00073261
H         1.05091447    -0.75454621    -0.32144287     0.00198629    -0.00367185    -0.00097362
     6
  Step:     7            Position(A)                                  Velocity(au)
C        -0.69002626    -0.00208897     0.00126795     0.00027657    -0.00019622     0.00011822
C         0.65936523     0.00047384     0.00167119    -0.00034219     0.00004204     0.00015791
H        -1.05573268     0.76957195    -0.33588485    -0.00213689     0.00454780    -0.00122543
H        -1.24435101    -0.74227286    -0.34471728    -0.00105172    -0.00195853    -0.00017096
H         1.05124101     0.78721106    -0.33138366     0.00172446     0.00338815    -0.00081519
H         1.05671956    -0.76526410    -0.32426342     0.00224606    -0.00414021    -0.00107881
     6
  Step:     8            Position(A)                                  Velocity(au)
C        -0.68922879    -0.00264897     0.00160453     0.00030489    -0.00021147     0.00012665
C         0.65837794     0.00059206     0.00212231    -0.00037776     0.00004384     0.00017048
H        -1.06188861     0.78266391    -0.33937919    -0.00235146     0.00499647    -0.00131792
H        -1.24739739    -0.74795669    -0.34519765    -0.00117097    -0.00219012    -0.00017730
H         1.05622612     0.79699300    -0.33371563     0.00191193     0.00374563    -0.00088255
H         1.06319869    -0.77718997    -0.32734311     0.00247877    -0.00455449    -0.00116294
     6
  Step:     9            Position(A)                                  Velocity(au)
C        -0.68835873    -0.00324553     0.00196064     0.00032963    -0.00022303     0.00013251
C         0.65729918     0.00071358     0.00260361    -0.00040904     0.00004450     0.00017998
H        -1.06859336     0.79689880    -0.34309283    -0.00253836     0.00538389    -0.00138610
H        -1.25075530    -0.75425110    -0.34568699    -0.00127920    -0.00240450    -0.00017736
H         1.06169781     0.80769677    -0.33621052     0.00208006     0.00406184    -0.00093425
H         1.07027654    -0.79017363    -0.33062383     0.00268386    -0.00491380    -0.00122597
     6
  Step:    10            Position(A)                                  Velocity(au)
C        -0.68742599    -0.00386877     0.00232927     0.00035074    -0.00023110     0.00013585
C         0.65614078     0.00083543     0.00310666    -0.00043601     0.00004413     0.00018643
H        -1.07577147     0.81210962    -0.34696008    -0.00269808     0.00571115    -0.00143086
H        -1.25439365    -0.76110747    -0.34616766    -0.00137582    -0.00260068    -0.00017086
H         1.06760242     0.81920813    -0.33882525     0.00222851     0.00433625    -0.00097029
H         1.07787733    -0.80406468    -0.33404820     0.00286147    -0.00521873    -0.00126840
     6
  Step:    11            Position(A)                                  Velocity(au)
C        -0.68644047    -0.00450948     0.00270365     0.00036826    -0.00023595     0.00013678
C         0.65491456     0.00095494     0.00362326    -0.00045869     0.00004286     0.00018997
H        -1.08334974     0.82813437    -0.35091851    -0.00283166     0.00598062    -0.00145358
H        -1.25827999    -0.76847482    -0.34662146    -0.00146041    -0.00277794    -0.00015767
H         1.07388602     0.83141269    -0.34151727     0.00235736     0.00456918    -0.00099103
H         1.08592656    -0.81871607    -0.33756102     0.00301231    -0.00547100    -0.00129124
     6
  Step:    12            Position(A)                                  Velocity(au)
C        -0.68541188    -0.00515923     0.00307735     0.00038229    -0.00023788     0.00013544
C         0.65363208     0.00106983     0.00414562    -0.00047723     0.00004082     0.00019074
H        -1.09125849     0.84481902    -0.35491007    -0.00294059     0.00619560    -0.00145603
H        -1.26238099    -0.77630066    -0.34703002    -0.00153275    -0.00293585    -0.00013778
H         1.08049536     0.84419805    -0.34424543     0.00246703     0.00476171    -0.00099710
H         1.09435235    -0.83398682    -0.34111031     0.00313754    -0.00567319    -0.00129581
     6
  Step:    13            Position(A)                                  Velocity(au)
C        -0.68434962    -0.00581052     0.00344439     0.00039296    -0.00023726     0.00013199
C         0.65230450     0.00117818     0.00466645    -0.00049178     0.00003814     0.00018895
H        -1.09943248     0.86201950    -0.35888185    -0.00302657     0.00635993    -0.00144013
H        -1.26666295    -0.78453165    -0.34737503    -0.00159277    -0.00307422    -0.00011127
H         1.08737877     0.85745557    -0.34697062     0.00255820     0.00491543    -0.00098934
H         1.10308650    -0.84974405    -0.34464811     0.00323863    -0.00582851    -0.00128365
     6
  Step:    14            Position(A)                                  Velocity(au)
C        -0.68326268    -0.00645683     0.00379926     0.00040043    -0.00023442     0.00012664
C         0.65094244     0.00127845     0.00517902    -0.00050255     0.00003498     0.00018482
H        -1.10781149     0.87960292    -0.36278646    -0.00309149     0.00647781    -0.00140792
H        -1.27109223    -0.79311429    -0.34763859    -0.00164058    -0.00319312    -0.00007833
H         1.09448673     0.87108167    -0.34965633     0.00263174     0.00503238    -0.00096875
H         1.11206515    -0.86586425    -0.34813086     0.00331723    -0.00594050    -0.00125640
     6
  Step:    15            Position(A)                                  Velocity(au)
C        -0.68215957    -0.00709262     0.00413701     0.00040487    -0.00022972     0.00011956
C         0.64955592     0.00136948     0.00567728    -0.00050978     0.00003144     0.00017859
H        -1.11634056     0.89744811    -0.36658209    -0.00313727     0.00655353    -0.00136142
H        -1.27563566    -0.80199557    -0.34780343    -0.00167640    -0.00329280    -0.00003921
H         1.10177237     0.88497882    -0.35226895     0.00268868     0.00511485    -0.00093643
H         1.12122920    -0.88223398    -0.35151964     0.00337511    -0.00601288    -0.00121575
     6
  Step:    16            Position(A)                                  Velocity(au)
C        -0.68104833    -0.00771323     0.00445317     0.00040648    -0.00022348     0.00011095
C         0.64815431     0.00145042     0.00615578    -0.00051371     0.00002765     0.00017049
H        -1.12496997     0.91544566    -0.37023236    -0.00316581     0.00659131    -0.00130256
H        -1.28026083    -0.81112336    -0.34785306    -0.00170056    -0.00337367     0.00000575
H         1.10919174     0.89905598    -0.35477789     0.00273011     0.00516530    -0.00089350
H         1.13052439    -0.89875005    -0.35478008     0.00341404    -0.00604938    -0.00116334
     6
  Step:    17            Position(A)                                  Velocity(au)
C        -0.67993644    -0.00831490     0.00474382     0.00040544    -0.00021601     0.00010099
C         0.64674631     0.00152071     0.00660972    -0.00051458     0.00002370     0.00016074
H        -1.13365510     0.93349751    -0.37370607    -0.00317891     0.00659522    -0.00123316
H        -1.28493643    -0.82044694    -0.34777200    -0.00171351    -0.00343630     0.00005617
H         1.11670397     0.91322902    -0.35715570     0.00275717     0.00518625    -0.00084109
H         1.13990139    -0.91531940    -0.35788223     0.00343579    -0.00605363    -0.00110076
     6
  Step:    18            Position(A)                                  Velocity(au)
C        -0.67883088    -0.00889463     0.00500552     0.00040194    -0.00020756     0.00008986
C         0.64533994     0.00158005     0.00703491    -0.00051264     0.00001968     0.00014956
H        -1.14235617     0.95151643    -0.37697677    -0.00317830     0.00656906    -0.00115487
H        -1.28963241    -0.82991728    -0.34754583    -0.00171574    -0.00348136     0.00011166
H         1.12427135     0.92742076    -0.35937799     0.00277102     0.00518021    -0.00078031
H         1.14931554    -0.93185873    -0.36080036     0.00344204    -0.00602909    -0.00102945
     6
  Step:    19            Position(A)                                  Velocity(au)
C        -0.67773812    -0.00945012     0.00523528     0.00039617    -0.00019839     0.00007771
C         0.64394259     0.00162836     0.00742772    -0.00050811     0.00001566     0.00013716
H        -1.15103792     0.96942521    -0.38002234    -0.00316553     0.00651635    -0.00106921
H        -1.29432018    -0.83948731    -0.34716129    -0.00170779    -0.00350961     0.00017178
H         1.13185930     0.94156078    -0.36142336     0.00277276     0.00514963    -0.00071220
H         1.15872671    -0.94829389    -0.36351256     0.00343438    -0.00597900    -0.00095079
     6
  Step:    20            Position(A)                                  Velocity(au)
C        -0.67666413    -0.00997966     0.00543055     0.00007785    -0.00003783     0.00001297
C         0.64256100     0.00166571     0.00778506    -0.00010048     0.00000235     0.00002480
H        -1.15966919     0.98715586    -0.38282453    -0.00062991     0.00129113    -0.00019597
H        -1.29897271    -0.84911212    -0.34660633    -0.00033886    -0.00070605     0.00004733
H         1.13943623     0.95558527    -0.36327320     0.00055402     0.00102180    -0.00012786
H         1.16809894    -0.96455927    -0.36600043     0.00068448    -0.00118409    -0.00017361
     6
  Step:    21            Position(A)                                  Velocity(au)
C        -0.67646338    -0.01006954     0.00544769     0.00006879    -0.00002788    -0.00000050
C         0.64229718     0.00166676     0.00783384    -0.00009226    -0.00000156     0.00001080
H        -1.16135283     0.99056774    -0.38323136    -0.00060055     0.00120225    -0.00010113
H        -1.29986902    -0.85104897    -0.34638627    -0.00031581    -0.00070901     0.00011396
H         1.14093138     0.95829292    -0.36351707     0.00053853     0.00095657    -0.00005000
H         1.16993523    -0.96768349    -0.36635540     0.00065746    -0.00109897    -0.00008554
     6
  Step:    22            Position(A)                                  Velocity(au)
C        -0.67628790    -0.01013213     0.00542782     0.00005939    -0.00001788    -0.00001409
C         0.64205642     0.00165715     0.00784411    -0.00008364    -0.00000545    -0.00000335
H        -1.16295374     0.99373126    -0.38337763    -0.00056950     0.00110968    -0.00000550
H        -1.30069992    -0.85298984    -0.34598303    -0.00029106    -0.00070905     0.00018126
H         1.14238158     0.96081694    -0.36354666     0.00052121     0.00088767     0.00002878
H         1.17169472    -0.97056979    -0.36646828     0.00062841    -0.00101027     0.00000336
     6
  Step:    23            Position(A)                                  Velocity(au)
C        -0.67613859    -0.01016735     0.00537062     0.00004967    -0.00000786    -0.00002778
C         0.64183971     0.00163696     0.00781549    -0.00007468    -0.00000930    -0.00001763
H        -1.16446754     0.99663686    -0.38326146    -0.00053694     0.00101381     0.00009073
H        -1.30146091    -0.85492693    -0.34539493    -0.00026474    -0.00070631     0.00024912
H         1.14378202     0.96314781    -0.36335965     0.00050222     0.00081547     0.00010834
H         1.17337217    -0.97320891    -0.36633702     0.00059755    -0.00091838     0.00009293
     6
  Step:    24            Position(A)                                  Velocity(au)
C        -0.67601625    -0.01017515     0.00527586     0.00003968     0.00000216    -0.00004155
C         0.64164795     0.00160627     0.00774770    -0.00006542    -0.00001313    -0.00003199
H        -1.16589039     0.99927600    -0.38288142    -0.00050306     0.00091499     0.00018740
H        -1.30214786    -0.85685282    -0.34462054    -0.00023697    -0.00070093     0.00031745
H         1.14512836     0.96527693    -0.36295413     0.00048173     0.00074029     0.00018851
H         1.17496285    -0.97559261    -0.36596001     0.00056505    -0.00082365     0.00018302
     6
  Step:    25            Position(A)                                  Velocity(au)
C        -0.67592158    -0.01015554     0.00514336     0.00002945     0.00001217    -0.00005538
C         0.64148191     0.00156517     0.00764052    -0.00005589    -0.00001692    -0.00004643
H        -1.16721890     1.00164113    -0.38223655    -0.00046803     0.00081359     0.00028433
H        -1.30275695    -0.85876049    -0.34365871    -0.00020786    -0.00069306     0.00038616
H         1.14641671     0.96719664    -0.36232864     0.00045989     0.00066248     0.00026915
H         1.17646256    -0.97771366    -0.36533606     0.00053111    -0.00072646     0.00027345
     6
  Step:    26            Position(A)                                  Velocity(au)
C        -0.67585518    -0.01010859     0.00497300     0.00001902     0.00002215    -0.00006923
C         0.64134226     0.00151375     0.00749378    -0.00004614    -0.00002067    -0.00006090
H        -1.16845014     1.00372570    -0.38132633    -0.00043201     0.00070996     0.00038138
H        -1.30328471    -0.86064332    -0.34250855    -0.00017755    -0.00068284     0.00045514
H         1.14764362     0.96890018    -0.36148209     0.00043687     0.00058236     0.00035011
H         1.17786759    -0.97956578    -0.36446443     0.00049589    -0.00062715     0.00036409
     6
  Step:    27            Position(A)                                  Velocity(au)
C        -0.67581755    -0.01003440     0.00476471     0.00000843     0.00003208    -0.00008310
C         0.64122954     0.00145213     0.00730742    -0.00003622    -0.00002438    -0.00007540
H        -1.16958165     1.00552405    -0.38015068    -0.00039517     0.00060443     0.00047838
H        -1.30372802    -0.86249510    -0.34116944    -0.00014617    -0.00067044     0.00052430
H         1.14880606     0.97038173    -0.36041383     0.00041283     0.00050028     0.00043123
H         1.17917471    -0.98114366    -0.36334477     0.00045959    -0.00052606     0.00045478
     6
  Step:    28            Position(A)                                  Velocity(au)
C        -0.67580907    -0.00993311     0.00451851    -0.00000228     0.00004196    -0.00009696
C         0.64114419     0.00138040     0.00708140    -0.00002615    -0.00002806    -0.00008989
H        -1.17061140     1.00703146    -0.37870994    -0.00035767     0.00049734     0.00057519
H        -1.30408413    -0.86431009    -0.33964103    -0.00011384    -0.00065601     0.00059354
H         1.14990145     0.97163632    -0.35912358     0.00038791     0.00041655     0.00051238
H         1.18038121    -0.98244292    -0.36197716     0.00042238    -0.00042354     0.00054537
     6
  Step:    29            Position(A)                                  Velocity(au)
C        -0.67583004    -0.00980492     0.00423443    -0.00001309     0.00005176    -0.00011078
C         0.64108654     0.00129868     0.00681579    -0.00001598    -0.00003169    -0.00010435
H        -1.17153782     1.00824412    -0.37700486    -0.00031967     0.00038902     0.00067164
H        -1.30435062    -0.86608295    -0.33792325    -0.00008070    -0.00063971     0.00066275
H         1.15092765     0.97265992    -0.35761148     0.00036229     0.00033150     0.00059342
H         1.18148480    -0.98346007    -0.36036204     0.00038442    -0.00031991     0.00063572
     6
  Step:    30            Position(A)                                  Velocity(au)
C        -0.67588064    -0.00965004     0.00391261    -0.00002394     0.00006147    -0.00012456
C         0.64105679     0.00120708     0.00651070    -0.00000576    -0.00003529    -0.00011876
H        -1.17235974     1.00915911    -0.37503658    -0.00028132     0.00027979     0.00076760
H        -1.30452550    -0.86780882    -0.33601631    -0.00004689    -0.00062172     0.00073184
H         1.15188292     0.97344936    -0.35587802     0.00033612     0.00024545     0.00067420
H         1.18248371    -0.98419257    -0.35850027     0.00034590    -0.00021551     0.00072569
     6
  Step:    31            Position(A)                                  Velocity(au)
C        -0.67596095    -0.00946874     0.00355320    -0.00003480     0.00007108    -0.00013826
C         0.64105506     0.00110570     0.00616629     0.00000449    -0.00003884    -0.00013309
H        -1.17307644     1.00977438    -0.37280666    -0.00024279     0.00016998     0.00086293
H        -1.30460708    -0.86948329    -0.33392067    -0.00001255    -0.00060220     0.00080070
H         1.15276596     0.97400235    -0.35392410     0.00030955     0.00015873     0.00075459
H         1.18337660    -0.98463874    -0.35639306     0.00030697    -0.00011066     0.00081515
     6
  Step:    32            Position(A)                                  Velocity(au)
C        -0.67607095    -0.00926131     0.00315644    -0.00004563     0.00008057    -0.00015187
C         0.64108133     0.00099467     0.00578281     0.00001470    -0.00004235    -0.00014732
H        -1.17368763     1.01008878    -0.37031703    -0.00020423     0.00005991     0.00095748
H        -1.30459411    -0.87110241    -0.33163708     0.00002220    -0.00058133     0.00086925
H         1.15357591     0.97431747    -0.35175098     0.00028274     0.00007164     0.00083446
H         1.18416261    -0.98479780    -0.35404201     0.00026782    -0.00000570     0.00090396
     6
  Step:    33            Position(A)                                  Velocity(au)
C        -0.67621051    -0.00902809     0.00272260    -0.00005640     0.00008993    -0.00016537
C         0.64113547     0.00087410     0.00536057     0.00002486    -0.00004581    -0.00016143
H        -1.17419343     1.01010204    -0.36757001    -0.00016580    -0.00005009     0.00105110
H        -1.30448568    -0.87266271    -0.32916656     0.00005721    -0.00055926     0.00093737
H         1.15431230     0.97439418    -0.34936027     0.00025584    -0.00001548     0.00091366
H         1.18484137    -0.98466990    -0.35144909     0.00022861     0.00009906     0.00099198
     6
  Step:    34            Position(A)                                  Velocity(au)
C        -0.67637940    -0.00876944     0.00225202    -0.00006706     0.00009916    -0.00017873
C         0.64121727     0.00074412     0.00489992     0.00003490    -0.00004923    -0.00017540
H        -1.17459443     1.00981481    -0.36456830    -0.00012766    -0.00015970     0.00114368
H        -1.30428124    -0.87416116    -0.32651036     0.00009234    -0.00053619     0.00100499
H         1.15497514     0.97423282    -0.34675396     0.00022901    -0.00010231     0.00099207
H         1.18541293    -0.98425605    -0.34861663     0.00018952     0.00020327     0.00107909
     6
  Step:    35            Position(A)                                  Velocity(au)
C        -0.67657728    -0.00848578     0.00174509    -0.00007758     0.00010822    -0.00019194
C         0.64132636     0.00060485     0.00440127     0.00004480    -0.00005260    -0.00018920
H        -1.17489164     1.00922862    -0.36131499    -0.00008998    -0.00026856     0.00123505
H        -1.30398065    -0.87559523    -0.32367004     0.00012746    -0.00051226     0.00107200
H         1.15556481     0.97383460    -0.34393439     0.00020241    -0.00018855     0.00106957
H         1.18587787    -0.98355819    -0.34554731     0.00015072     0.00030660     0.00116514
     6
  Step:    36            Position(A)                                  Velocity(au)
C        -0.67680371    -0.00817755     0.00120225    -0.00008792     0.00011711    -0.00020498
C         0.64146229     0.00045643     0.00386512     0.00005451    -0.00005592    -0.00020282
H        -1.17508654     1.00834597    -0.35781354    -0.00005292    -0.00037635     0.00132508
H        -1.30358412    -0.87696284    -0.32064737     0.00016244    -0.00048767     0.00113831
H         1.15608216     0.97320161    -0.34090425     0.00017620    -0.00027386     0.00114602
H         1.18623723    -0.98257920    -0.34224419     0.00011239     0.00040871     0.00125002
     6
  Step:    37            Position(A)                                  Velocity(au)
C        -0.67705814    -0.00784525     0.00062399    -0.00009804     0.00012582    -0.00021783
C         0.64162450     0.00029899     0.00329200     0.00006399    -0.00005919    -0.00021623
H        -1.17518107     1.00717029    -0.35406781    -0.00001666    -0.00048269     0.00141364
H        -1.30309223    -0.87826239    -0.31744439     0.00019714    -0.00046257     0.00120383
H         1.15652848     0.97233682    -0.33766657     0.00015053    -0.00035791     0.00122130
H         1.18649255    -0.98132288    -0.33871068     0.00007472     0.00050924     0.00133358
     6
  Step:    38            Position(A)                                  Velocity(au)
C        -0.67733993    -0.00748941     0.00001087    -0.00010791     0.00013432    -0.00023047
C         0.64181229     0.00013269     0.00268250     0.00007320    -0.00006241    -0.00022941
H        -1.17517764     1.00570603    -0.35008202     0.00001863    -0.00058723     0.00150058
H        -1.30250593    -0.87949276    -0.31406336     0.00023142    -0.00043715     0.00126848
H         1.15690547     0.97124409    -0.33422470     0.00012558    -0.00044039     0.00129529
H         1.18664587    -0.97979402    -0.33495055     0.00003789     0.00060786     0.00141569
     6
  Step:    39            Position(A)                                  Velocity(au)
C        -0.67764831    -0.00711063    -0.00063651    -0.00011748     0.00014260    -0.00024288
C         0.64202487    -0.00004233     0.00203728     0.00008210    -0.00006556    -0.00024235
H        -1.17507920     1.00395861    -0.34586079     0.00005274    -0.00068958     0.00158576
H        -1.30182652    -0.88065325    -0.31050681     0.00026517    -0.00041156     0.00133217
H         1.15721531     0.96992821    -0.33058234     0.00010150    -0.00052096     0.00136787
H         1.18669977    -0.97799838    -0.33096792     0.00000210     0.00070417     0.00149624
     6
  Step:    40            Position(A)                                  Velocity(au)
C        -0.67798242    -0.00670953    -0.00131751    -0.00008648     0.00010281    -0.00017408
C         0.64226132    -0.00022588     0.00135705     0.00006187    -0.00004686    -0.00017405
H        -1.17488918     1.00193456    -0.34140913     0.00005836    -0.00053875     0.00113917
H        -1.30105566    -0.88174368    -0.30677745     0.00020356    -0.00026344     0.00095200
H         1.15746061     0.96839483    -0.32674352     0.00005356    -0.00040903     0.00098210
H         1.18665735    -0.97594275    -0.32676728    -0.00002215     0.00054453     0.00107504
     6
  Step:    41            Position(A)                                  Velocity(au)
C        -0.67823130    -0.00641758    -0.00180999    -0.00009540     0.00011062    -0.00018601
C         0.64244192    -0.00035820     0.00086396     0.00007007    -0.00004989    -0.00018647
H        -1.17468579     1.00032677    -0.33818141     0.00008981    -0.00063602     0.00122073
H        -1.30045429    -0.88242917    -0.30408916     0.00023596    -0.00023801     0.00101372
H         1.15757634     0.96717082    -0.32396177     0.00003153    -0.00048520     0.00105178
H         1.18655046    -0.97432759    -0.32372088    -0.00005549     0.00063561     0.00115234
     6
  Step:    42            Position(A)                                  Velocity(au)
C        -0.67850419    -0.00610454    -0.00233486    -0.00010403     0.00011823    -0.00019775
C         0.64264457    -0.00049874     0.00033720     0.00007797    -0.00005287    -0.00019867
H        -1.17439798     0.99845603    -0.33473265     0.00012001    -0.00073087     0.00130077
H        -1.29976513    -0.88304540    -0.30123321     0.00026769    -0.00021286     0.00107459
H         1.15763307     0.96574116    -0.32099110     0.00001049    -0.00055929     0.00112022
H         1.18635385    -0.97246646    -0.32046489    -0.00008766     0.00072424     0.00122826
     6
  Step:    43            Position(A)                                  Velocity(au)
C        -0.67880026    -0.00577097    -0.00289155    -0.00011233     0.00012562    -0.00020928
C         0.64286835    -0.00064737    -0.00022261     0.00008551    -0.00005580    -0.00021063
H        -1.17402941     0.99632949    -0.33106721     0.00014878    -0.00082291     0.00137914
H        -1.29899022    -0.88359338    -0.29821200     0.00029862    -0.00018818     0.00113454
H         1.15763373     0.96411196    -0.31783504    -0.00000940    -0.00063097     0.00118731
H         1.18607102    -0.97036657    -0.31700325    -0.00011846     0.00081005     0.00130268
     6
  Step:    44            Position(A)                                  Velocity(au)
C        -0.67911853    -0.00541750    -0.00347944    -0.00012026     0.00013277    -0.00022056
C         0.64311224    -0.00080391    -0.00081480     0.00009266    -0.00005866    -0.00022234
H        -1.17358427     0.99395534    -0.32718984     0.00017591    -0.00091175     0.00145570
H        -1.29813190    -0.88407458    -0.29502816     0.00032863    -0.00016411     0.00119350
H         1.15758167     0.96229023    -0.31449740    -0.00002798    -0.00069993     0.00125296
H         1.18570597    -0.96803612    -0.31334024    -0.00014769     0.00089267     0.00137548
     6