     6
  Step:     0            Position(A)                                  Velocity(au)
C        -0.69284974     0.00000000     0.00000000     0.00000000     0.00000000     0.00000000
C         0.66284974     0.00000000     0.00000000     0.00000000     0.00000000     0.00000000
H        -1.03381877     0.72280451    -0.32280655     0.00000000     0.00000000     0.00000000
H        -1.23381879    -0.72280451    -0.34280655     0.00000000     0.00000000     0.00000000
H         1.03381877     0.75280451    -0.32280655     0.00000000     0.00000000     0.00000000
H         1.03381877    -0.72280451    -0.31280655     0.00000000     0.00000000     0.00000000
     6
  Step:     1            Position(A)                                  Velocity(au)
C        -0.69284365    -0.00005312     0.00004400     0.00000429    -0.00003863     0.00003204
C         0.66282902     0.00001721     0.00005052    -0.00001496     0.00001252     0.00003679
H        -1.03425390     0.72381272    -0.32322799    -0.00031662     0.00073397    -0.00030690
H        -1.23405767    -0.72319753    -0.34289930    -0.00017436    -0.00028677    -0.00006753
H         1.03421075     0.75353130    -0.32303987     0.00028584     0.00052960    -0.00016980
H         1.03427511    -0.72371858    -0.31318537     0.00033223    -0.00066560    -0.00027597
     6
  Step:     2            Position(A)                                  Velocity(au)
C        -0.69282626    -0.00021129     0.00017524     0.00000796    -0.00007642     0.00006354
C         0.66276793     0.00006845     0.00020121    -0.00002916     0.00002477     0.00007294
H        -1.03555045     0.72681876    -0.32448503    -0.00062687     0.00145454    -0.00060857
H        -1.23477238    -0.72437295    -0.34317589    -0.00034732    -0.00057090    -0.00013384
H         1.03538210     0.75570102    -0.32373523     0.00056835     0.00105150    -0.00033627
H         1.03563582    -0.72644483    -0.31431591     0.00065846    -0.00131970    -0.00054767
     6
  Step:     3            Position(A)                                  Velocity(au)
C        -0.69280012    -0.00047106     0.00039151     0.00001041    -0.00011257     0.00009399
C         0.66266954     0.00015268     0.00044948    -0.00004189     0.00003653     0.00010786
H        -1.03768239     0.73176795    -0.32655641    -0.00092473     0.00214910    -0.00090017
H        -1.23595725    -0.72631991    -0.34363132    -0.00051755    -0.00084978    -0.00019775
H         1.03731922     0.75928217    -0.32487903     0.00084437     0.00155830    -0.00049623
H         1.03787638    -0.73093632    -0.31618071     0.00097299    -0.00195143    -0.00081109
     6
  Step:     4            Position(A)                                  Velocity(au)
C        -0.69276931    -0.00082698     0.00068927     0.00001114    -0.00014644     0.00012293
C         0.66253882     0.00026822     0.00079113    -0.00005252     0.00004760     0.00014100
H        -1.04060801     0.73857270    -0.32940826    -0.00120490     0.00280651    -0.00117747
H        -1.23760299    -0.72902058    -0.34425741    -0.00068380    -0.00112092    -0.00025809
H         1.04000014     0.76422372    -0.32644923     0.00111100     0.00204325    -0.00064674
H         1.04095734    -0.73711763    -0.31875192     0.00127072    -0.00255109    -0.00106271
     6
  Step:     5            Position(A)                                  Velocity(au)
C        -0.69273918    -0.00127196     0.00106383     0.00000974    -0.00017750     0.00014999
C         0.66238231     0.00041301     0.00122065    -0.00006053     0.00005787     0.00017191
H        -1.04427224     0.74711741    -0.33299629    -0.00146299     0.00341760    -0.00143718
H        -1.23969708    -0.73245048    -0.34504287    -0.00084494    -0.00138199    -0.00031379
H         1.04339555     0.77045718    -0.32841618     0.00136581     0.00250045    -0.00078521
H         1.04482626    -0.74488879    -0.32199291     0.00154735    -0.00311058    -0.00129972
     6
  Step:     6            Position(A)                                  Velocity(au)
C        -0.69271604    -0.00179775     0.00150962     0.00000592    -0.00020543     0.00017491
C         0.66220777     0.00058473     0.00173137    -0.00006555     0.00006730     0.00020025
H        -1.04860946     0.75726437    -0.33726851    -0.00169572     0.00397550    -0.00167699
H        -1.24222417    -0.73657899    -0.34597359    -0.00100005    -0.00163084    -0.00036384
H         1.04747004     0.77789926    -0.33074373     0.00160681     0.00292502    -0.00090951
H         1.04942014    -0.75413011    -0.32586037     0.00179949    -0.00362368    -0.00152009
     6
  Step:     7            Position(A)                                  Velocity(au)
C        -0.69270682    -0.00239550     0.00202044    -0.00000048    -0.00023010     0.00019749
C         0.66202383     0.00078107     0.00231587    -0.00006734     0.00007591     0.00022577
H        -1.05354651     0.76886032    -0.34216813    -0.00190088     0.00447567    -0.00189568
H        -1.24516661    -0.74136990    -0.34703281    -0.00114840    -0.00186554    -0.00040736
H         1.05218357     0.78645479    -0.33339047     0.00183261     0.00331321    -0.00101795
H         1.05466809    -0.76470751    -0.33030660     0.00202476    -0.00408609    -0.00172262
     6
  Step:     8            Position(A)                                  Velocity(au)
C        -0.69271865    -0.00305621     0.00258972    -0.00000946    -0.00025153     0.00021764
C         0.66183948     0.00099992     0.00296619    -0.00006584     0.00008383     0.00024835
H        -1.05900581     0.78174283    -0.34763640    -0.00207736     0.00491584    -0.00209301
H        -1.24850503    -0.74678204    -0.34820155    -0.00128948    -0.00208440    -0.00044358
H         1.05749303     0.79601995    -0.33631112     0.00204236     0.00366239    -0.00110937
H         1.06049403    -0.77647788    -0.33528176     0.00222173    -0.00449543    -0.00190693
     6
  Step:     9            Position(A)                                  Velocity(au)
C        -0.69275853    -0.00377119     0.00321079    -0.00002090    -0.00026992     0.00023538
C         0.66166372     0.00123954     0.00367418    -0.00006114     0.00009119     0.00026797
H        -1.06490807     0.79574618    -0.35361527    -0.00222498     0.00529573    -0.00226962
H        -1.25221907    -0.75276997    -0.34945888    -0.00142303    -0.00228600    -0.00047191
H         1.06335372     0.80648525    -0.33945785     0.00223574     0.00397104    -0.00118308
H         1.06681923    -0.78929405    -0.34073601     0.00238985    -0.00485101    -0.00207335
     6
  Step:    10            Position(A)                                  Velocity(au)
C        -0.69283293    -0.00453248     0.00387709    -0.00003454    -0.00028557     0.00025078
C         0.66150508     0.00149868     0.00443175    -0.00005348     0.00009822     0.00028467
H        -1.07117476     0.81070639    -0.36004949    -0.00234442     0.00561673    -0.00242684
H        -1.25628793    -0.75928469    -0.35078254    -0.00154903    -0.00246914    -0.00049195
H         1.06972079     0.81773845    -0.34278168     0.00241290     0.00423860    -0.00123893
H         1.07356468    -0.80300918    -0.34662136     0.00252939    -0.00515361    -0.00222279
     6
  Step:    11            Position(A)                                  Velocity(au)
C        -0.69294745    -0.00533307     0.00458235    -0.00005002    -0.00029887     0.00026396
C         0.66137125     0.00177671     0.00523112    -0.00004321     0.00010512     0.00029862
H        -1.07773022     0.82646534    -0.36688820    -0.00243702     0.00588154    -0.00256642
H        -1.26069108    -0.76627428    -0.35214945    -0.00166764    -0.00263292    -0.00050355
H         1.07655041     0.82966712    -0.34623386     0.00257438     0.00446541    -0.00127726
H         1.08065305    -0.81748034    -0.35289294     0.00264131    -0.00540518    -0.00235655
     6
  Step:    12            Position(A)                                  Velocity(au)
C        -0.69310652    -0.00616709     0.00532077    -0.00006686    -0.00031024     0.00027512
C         0.66126873     0.00207358     0.00606497    -0.00003084     0.00011209     0.00031000
H        -1.08450336     0.84287386    -0.37408585    -0.00250473     0.00609383    -0.00269034
H        -1.26540864    -0.77368470    -0.35353657    -0.00177913    -0.00277665    -0.00050690
H         1.08380063     0.84216078    -0.34976729     0.00272094     0.00465251    -0.00129891
H         1.08801058    -0.83257132    -0.35950989     0.00272716    -0.00560852    -0.00247613
     6
  Step:    13            Position(A)                                  Velocity(au)
C        -0.69331313    -0.00702986     0.00608704    -0.00008452    -0.00032009     0.00028444
C         0.66120257     0.00238978     0.00692657    -0.00001691     0.00011932     0.00031905
H        -1.09142914     0.85979387    -0.38160227    -0.00254995     0.00625789    -0.00280043
H        -1.27042156    -0.78146043    -0.35492181    -0.00188378    -0.00289997    -0.00050254
H         1.09143185     0.85511274    -0.35333792     0.00285344     0.00480154    -0.00130527
H         1.09556851    -0.84815462    -0.36643547     0.00278903    -0.00576705    -0.00258294
     6
  Step:    14            Position(A)                                  Velocity(au)
C        -0.69356880    -0.00791775     0.00687643    -0.00010248    -0.00032877     0.00029212
C         0.66117623     0.00272617     0.00780990    -0.00000199     0.00012689     0.00032601
H        -1.09844964     0.87709968    -0.38940203    -0.00257543     0.00637833    -0.00289818
H        -1.27571145    -0.78954529    -0.35628505    -0.00198170    -0.00300276    -0.00049133
H         1.09940673     0.86842148    -0.35690613     0.00297262     0.00491457    -0.00129816
H         1.10326443    -0.86411262    -0.37363658     0.00282941    -0.00588447    -0.00267812
     6
  Step:    15            Position(A)                                  Velocity(au)
C        -0.69387362    -0.00882800     0.00768473    -0.00012028    -0.00033655     0.00029835
C         0.66119168     0.00308377     0.00870962     0.00001343     0.00013481     0.00033114
H        -1.10551474     0.89467842    -0.39745310    -0.00258401     0.00645978    -0.00298458
H        -1.28125995    -0.79788324    -0.35760903    -0.00207277    -0.00308526    -0.00047443
H         1.10768979     0.88199164    -0.36043784     0.00307904     0.00499398    -0.00127968
H         1.11104317    -0.88033815    -0.38108272     0.00285098    -0.00596459    -0.00276239
     6
  Step:    16            Position(A)                                  Velocity(au)
C        -0.69422662    -0.00975842     0.00850818    -0.00013759    -0.00034359     0.00030326
C         0.66124966     0.00346351     0.00962098     0.00002897     0.00014303     0.00033463
H        -1.11258220     0.91242969    -0.40572537    -0.00257849     0.00650666    -0.00306008
H        -1.28704790    -0.80641927    -0.35887981    -0.00215655    -0.00314796    -0.00045302
H         1.11624669     0.89573468    -0.36390500     0.00317299     0.00504230    -0.00125202
H         1.11885708    -0.89673433    -0.38874474     0.00285646    -0.00601109    -0.00283610
     6
  Step:    17            Position(A)                                  Velocity(au)
C        -0.69462616    -0.01070719     0.00934334    -0.00015429    -0.00034999     0.00030696
C         0.66135012     0.00386605     0.01053980     0.00004443     0.00015143     0.00033666
H        -1.11961712     0.93026480    -0.41418937    -0.00256136     0.00652303    -0.00312483
H        -1.29305462    -0.81510014    -0.36008667    -0.00223243    -0.00319162    -0.00042815
H         1.12504358     0.90956913    -0.36728543     0.00325460     0.00506212    -0.00121716
H         1.12666579    -0.91321416    -0.39659397     0.00284835    -0.00602745    -0.00289933
     6
  Step:    18            Position(A)                                  Velocity(au)
C        -0.69507049    -0.01167262     0.01018701    -0.00017038    -0.00035581     0.00030951
C         0.66149265     0.00429173     0.01146228     0.00005974     0.00015990     0.00033738
H        -1.12659087     0.94810564    -0.42281580    -0.00253469     0.00651257    -0.00317891
H        -1.29925755    -0.82387499    -0.36122145    -0.00229972    -0.00321719    -0.00040060
H         1.13404686     0.92342059    -0.37056192     0.00332399     0.00505599    -0.00117670
H         1.13443534    -0.92969985    -0.40460182     0.00282880    -0.00601693    -0.00295216
     6
  Step:    19            Position(A)                                  Velocity(au)
C        -0.69555801    -0.01265318     0.01103612    -0.00018595    -0.00036108     0.00031097
C         0.66167685     0.00474058     0.01238500     0.00007493     0.00016834     0.00033689
H        -1.13347994     0.96588356    -0.43157558    -0.00250015     0.00647855    -0.00322251
H        -1.30563232    -0.83269570    -0.36227767    -0.00235787    -0.00322569    -0.00037085
H         1.14322326     0.93722150    -0.37372106     0.00338135     0.00502634    -0.00113183
H         1.14213714    -0.94612214    -0.41273998     0.00279959    -0.00598253    -0.00299479
     6
  Step:    20            Position(A)                                  Velocity(au)
C        -0.69608751    -0.01364742     0.01188779    -0.00003856    -0.00007014     0.00005970
C         0.66190248     0.00521240     0.01330480     0.00001727     0.00003387     0.00006428
H        -1.14026477     0.98353833    -0.44044046    -0.00047143     0.00123156    -0.00062423
H        -1.31215329    -0.84151704    -0.36324972    -0.00046137    -0.00061697    -0.00006501
H         1.15254021     0.95091081    -0.37675216     0.00065700     0.00095387    -0.00020770
H         1.14974695    -0.96241966    -0.42098102     0.00052955    -0.00113630    -0.00058045
     6
  Step:    21            Position(A)                                  Velocity(au)
C        -0.69621354    -0.01384544     0.01205094    -0.00005360    -0.00007464     0.00005953
C         0.66197041     0.00531635     0.01347771     0.00003241     0.00004214     0.00006208
H        -1.14149363     0.98681825    -0.44218661    -0.00042680     0.00116558    -0.00065194
H        -1.31347488    -0.84318337    -0.36338276    -0.00050426    -0.00060032    -0.00003210
H         1.15439141     0.95343601    -0.37725168     0.00069583     0.00089121    -0.00015735
H         1.15113868    -0.96543755    -0.42260674     0.00048766    -0.00106917    -0.00060768
     6
  Step:    22            Position(A)                                  Velocity(au)
C        -0.69638063    -0.01405565     0.01221336    -0.00006859    -0.00007906     0.00005917
C         0.66207975     0.00544286     0.01364433     0.00004756     0.00005037     0.00005969
H        -1.14259904     0.98991317    -0.44400608    -0.00038117     0.00109635    -0.00067789
H        -1.31491121    -0.84480032    -0.36342526    -0.00054525    -0.00058090     0.00000123
H         1.15634585     0.95578502    -0.37761274     0.00073254     0.00082515    -0.00010645
H         1.15241408    -0.96826719    -0.42430455     0.00044450    -0.00099872    -0.00063322
     6
  Step:    23            Position(A)                                  Velocity(au)
C        -0.69658870    -0.01427783     0.01237454    -0.00008357    -0.00008339     0.00005862
C         0.66223053     0.00559183     0.01380417     0.00006272     0.00005855     0.00005713
H        -1.14357834     0.99281446    -0.44589416    -0.00033460     0.00102406    -0.00070215
H        -1.31645699    -0.84636046    -0.36337605    -0.00058430    -0.00055884     0.00003500
H         1.15839784     0.95794893    -0.37783385     0.00076719     0.00075595    -0.00005501
H         1.15356976    -0.97089978    -0.42606994     0.00040015    -0.00092518    -0.00065713
     6
  Step:    24            Position(A)                                  Velocity(au)
C        -0.69683769    -0.01451175     0.01253399    -0.00009853    -0.00008765     0.00005790
C         0.66242278     0.00576311     0.01395677     0.00007789     0.00006669     0.00005440
H        -1.14442903     0.99551397    -0.44784631    -0.00028713     0.00094888    -0.00072479
H        -1.31810688    -0.84785675    -0.36323385    -0.00062138    -0.00053426     0.00006925
H         1.16054180     0.95991950    -0.37791359     0.00079984     0.00068388    -0.00000306
H         1.15460257    -0.97332718    -0.42789857     0.00035466    -0.00084876    -0.00067951
     6
  Step:    25            Position(A)                                  Velocity(au)
C        -0.69712759    -0.01475719     0.01269120    -0.00011349    -0.00009181     0.00005700
C         0.66265652     0.00595656     0.01410167     0.00009306     0.00007476     0.00005150
H        -1.14514872     0.99800409    -0.44985819    -0.00023882     0.00087100    -0.00074587
H        -1.31985546    -0.84928243    -0.36299729    -0.00065648    -0.00050728     0.00010402
H         1.16277236     0.96168920    -0.37785056     0.00083055     0.00060917     0.00004940
H         1.15550950    -0.97554184    -0.42978632     0.00030813    -0.00076969    -0.00070041
     6
  Step:    26            Position(A)                                  Velocity(au)
C        -0.69745838    -0.01501391     0.01284571    -0.00012844    -0.00009590     0.00005592
C         0.66293176     0.00617200     0.01423844     0.00010825     0.00008277     0.00004846
H        -1.14573520     1.00027769    -0.45192564    -0.00018973     0.00079061    -0.00076547
H        -1.32169730    -0.85063117    -0.36266492    -0.00068958    -0.00047804     0.00013933
H         1.16508427     0.96325120    -0.37764341     0.00085938     0.00053209     0.00010234
H         1.15628779    -0.97753682    -0.43172930     0.00026061    -0.00068820    -0.00071993
     6
  Step:    27            Position(A)                                  Velocity(au)
C        -0.69783008    -0.01528168     0.01299703    -0.00014340    -0.00009989     0.00005467
C         0.66324854     0.00640924     0.01436668     0.00012343     0.00009070     0.00004526
H        -1.14618637     1.00232813    -0.45404472    -0.00013989     0.00070788    -0.00078367
H        -1.32362694    -0.85189697    -0.36223524    -0.00072070    -0.00044670     0.00017521
H         1.16747248     0.96459934    -0.37729084     0.00088639     0.00045290     0.00015574
H         1.15693483    -0.97930576    -0.43372381     0.00021217    -0.00060449    -0.00073814
     6
  Step:    28            Position(A)                                  Velocity(au)
C        -0.69824268    -0.01556025     0.01314473    -0.00015837    -0.00010380     0.00005326
C         0.66360684     0.00666805     0.01448600     0.00013862     0.00009854     0.00004194
H        -1.14650030     1.00414926    -0.45621170    -0.00008938     0.00062299    -0.00080053
H        -1.32563896    -0.85307426    -0.36170668    -0.00074984    -0.00041339     0.00021165
H         1.16993212     0.96572819    -0.37679161     0.00091165     0.00037183     0.00020959
H         1.15744822    -0.98084291    -0.43576638     0.00016290    -0.00051878    -0.00075513
     6
  Step:    29            Position(A)                                  Velocity(au)
C        -0.69869621    -0.01584938     0.01328835    -0.00017333    -0.00010761     0.00005170
C         0.66400666     0.00694819     0.01459604     0.00015379     0.00010630     0.00003848
H        -1.14667521     1.00573541    -0.45842302    -0.00003824     0.00053611    -0.00081614
H        -1.32772799    -0.85415789    -0.36107767    -0.00077703    -0.00037827     0.00024868
H         1.17245851     0.96663296    -0.37614453     0.00093524     0.00028915     0.00026386
H         1.15782578    -0.98214307    -0.43785376     0.00011287    -0.00043127    -0.00077095
     6
  Step:    30            Position(A)                                  Velocity(au)
C        -0.69919068    -0.01614882     0.01342747    -0.00018830    -0.00011133     0.00004998
C         0.66444797     0.00724940     0.01469646     0.00016896     0.00011395     0.00003490
H        -1.14670945     1.00708137    -0.46067534     0.00001346     0.00044742    -0.00083055
H        -1.32988869    -0.85514312    -0.36034661    -0.00080228    -0.00034151     0.00028628
H         1.17504716     0.96730960    -0.37534852     0.00095722     0.00020510     0.00031851
H         1.15806551    -0.98320162    -0.43998291     0.00006214    -0.00034217    -0.00078571
     6
  Step:    31            Position(A)                                  Velocity(au)
C        -0.69972609    -0.01645828     0.01356170    -0.00020327    -0.00011495     0.00004812
C         0.66493072     0.00757139     0.01478693     0.00018409     0.00012149     0.00003122
H        -1.14660157     1.00818242    -0.46296550     0.00006567     0.00035708    -0.00084384
H        -1.33211584    -0.85602566    -0.35951192    -0.00082564    -0.00030325     0.00032446
H         1.17769379     0.96775471    -0.37440255     0.00097768     0.00011995     0.00037351
H         1.15816563    -0.98401449    -0.44215097     0.00001080    -0.00025169    -0.00079945
     6
  Step:    32            Position(A)                                  Velocity(au)
C        -0.70030241    -0.01677749     0.01369063    -0.00021823    -0.00011846     0.00004611
C         0.66545482     0.00791383     0.01486719     0.00019919     0.00012890     0.00002743
H        -1.14635026     1.00903430    -0.46529052     0.00011833     0.00026526    -0.00085609
H        -1.33440430    -0.85680168    -0.35857206    -0.00084714    -0.00026368     0.00036320
H         1.18039432     0.96796562    -0.37330573     0.00099669     0.00003394     0.00042881
H         1.15812458    -0.98457816    -0.44435530    -0.00004107    -0.00016002    -0.00081227
     6
  Step:    33            Position(A)                                  Velocity(au)
C        -0.70091962    -0.01710615     0.01381391    -0.00023317    -0.00012185     0.00004398
C         0.66602015     0.00827640     0.01493695     0.00021425     0.00013619     0.00002355
H        -1.14595441     1.00963319    -0.46764762     0.00017135     0.00017214    -0.00086734
H        -1.33674905    -0.85746780    -0.35752553    -0.00086683    -0.00022296     0.00040247
H         1.18314490     0.96794034    -0.37205727     0.00101432    -0.00005267     0.00048438
H         1.15794102    -0.98488966    -0.44659345    -0.00009339    -0.00006735    -0.00082422
     6
  Step:    34            Position(A)                                  Velocity(au)
C        -0.70157765    -0.01744394     0.01393119    -0.00024807    -0.00012513     0.00004173
C         0.66662657     0.00865870     0.01499597     0.00022923     0.00014333     0.00001958
H        -1.14541309     1.00997575    -0.47003419     0.00022469     0.00007787    -0.00087767
H        -1.33914520    -0.85802111    -0.35637089    -0.00088476    -0.00018127     0.00044224
H         1.18594187     0.96767758    -0.37065652     0.00103066    -0.00013961     0.00054017
H         1.15761383    -0.98494654    -0.44886314    -0.00014607     0.00002611    -0.00083538
     6
  Step:    35            Position(A)                                  Velocity(au)
C        -0.70227639    -0.01779053     0.01404214    -0.00026294    -0.00012829     0.00003936
C         0.66727388     0.00906033     0.01504406     0.00024414     0.00015032     0.00001555
H        -1.14472555     1.01005909    -0.47244778     0.00027825    -0.00001736    -0.00088713
H        -1.34158800    -0.85845918    -0.35510680    -0.00090098    -0.00013877     0.00048249
H         1.18878182     0.96717677    -0.36910298     0.00104580    -0.00022663     0.00059610
H         1.15714214    -0.98474686    -0.45116231    -0.00019903     0.00012018    -0.00084580
     6
  Step:    36            Position(A)                                  Velocity(au)
C        -0.70301573    -0.01814556     0.01414647    -0.00027775    -0.00013131     0.00003689
C         0.66796183     0.00948084     0.01508102     0.00025895     0.00015714     0.00001145
H        -1.14389126     1.00988078    -0.47488612     0.00033198    -0.00011341    -0.00089580
H        -1.34407286    -0.85878007    -0.35373202    -0.00091555    -0.00009565     0.00052318
H         1.19166157     0.96643807    -0.36739632     0.00105981    -0.00031347     0.00065212
H         1.15652530    -0.98428924    -0.45348903    -0.00025218     0.00021467    -0.00085556
     6
  Step:    37            Position(A)                                  Velocity(au)
C        -0.70379548    -0.01850867     0.01424391    -0.00029249    -0.00013418     0.00003432
C         0.66869012     0.00991976     0.01510669     0.00027364     0.00016378     0.00000730
H        -1.14290987     1.00943885    -0.47734709     0.00038579    -0.00021009    -0.00090372
H        -1.34659535    -0.85898229    -0.35224543    -0.00092854    -0.00005208     0.00056425
H         1.19457818     0.96546236    -0.36553638     0.00107280    -0.00039984     0.00070816
H         1.15576294    -0.98357279    -0.45584158    -0.00030542     0.00030939    -0.00086472
     6
  Step:    38            Position(A)                                  Velocity(au)
C        -0.70461543    -0.01887945     0.01433419    -0.00030714    -0.00013692     0.00003167
C         0.66945842     0.01037657     0.01512097     0.00028819     0.00017022     0.00000312
H        -1.14178128     1.00873176    -0.47982876     0.00043960    -0.00030724    -0.00091096
H        -1.34915124    -0.85906488    -0.35064602    -0.00094001    -0.00000824     0.00060566
H         1.19752898     0.96425125    -0.36352321     0.00108486    -0.00048549     0.00076415
H         1.15485489    -0.98259714    -0.45821839    -0.00035867     0.00040414    -0.00087334
     6
  Step:    39            Position(A)                                  Velocity(au)
C        -0.70547529    -0.01925749     0.01441710    -0.00032168    -0.00013949     0.00002893
C         0.67026630     0.01085072     0.01512374     0.00030258     0.00017645    -0.00000110
H        -1.14050558     1.00775848    -0.48232933     0.00049334    -0.00040469    -0.00091757
H        -1.35173646    -0.85902733    -0.34893294    -0.00095003     0.00003569     0.00064736
H         1.20051153     0.96280711    -0.36135705     0.00109608    -0.00057013     0.00082001
H         1.15380130    -0.98136243    -0.46061808    -0.00041182     0.00049875    -0.00088148
     6
  Step:    40            Position(A)                                  Velocity(au)
C        -0.70637476    -0.01964235     0.01449244    -0.00026786    -0.00011309     0.00002083
C         0.67111330     0.01134159     0.01511496     0.00025247     0.00014541    -0.00000425
H        -1.13908311     1.00651842    -0.48484716     0.00043588    -0.00040030    -0.00073611
H        -1.35434718    -0.85886966    -0.34710548    -0.00076406     0.00006339     0.00054935
H         1.20352371     0.96113308    -0.35903837     0.00088192    -0.00052081     0.00069788
H         1.15260253    -0.97986934    -0.46303941    -0.00037043     0.00047263    -0.00070868
     6
  Step:    41            Position(A)                                  Velocity(au)
C        -0.70712686    -0.01995478     0.01454552    -0.00028214    -0.00011534     0.00001798
C         0.67182301     0.01174727     0.01509755     0.00026649     0.00015119    -0.00000848
H        -1.13781805     1.00529030    -0.48686804     0.00048923    -0.00049784    -0.00074170
H        -1.35644751    -0.85863650    -0.34554577    -0.00077156     0.00010698     0.00059143
H         1.20594931     0.95959587    -0.35705403     0.00089186    -0.00060275     0.00075326
H         1.15151728    -0.97844828    -0.46498769    -0.00042314     0.00056643    -0.00071610
     6
  Step:    42            Position(A)                                  Velocity(au)
C        -0.70791782    -0.02027319     0.01459075    -0.00029627    -0.00011745     0.00001509
C         0.67257082     0.01216851     0.01506856     0.00028032     0.00015677    -0.00001271
H        -1.13640742     1.00379561    -0.48890371     0.00054230    -0.00059517    -0.00074696
H        -1.35856699    -0.85828454    -0.34387084    -0.00077810     0.00015018     0.00063359
H         1.20840149     0.95783649    -0.35491864     0.00090141    -0.00068315     0.00080831
H         1.15028827    -0.97677143    -0.46695590    -0.00047553     0.00065961    -0.00072330
     6
  Step:    43            Position(A)                                  Velocity(au)
C        -0.70874725    -0.02059717     0.01462803    -0.00031026    -0.00011941     0.00001217
C         0.67335617     0.01260470     0.01502805     0.00029394     0.00016213    -0.00001691
H        -1.13485209     1.00203516    -0.49095332     0.00059501    -0.00069212    -0.00075194
H        -1.36070314    -0.85781511    -0.34208053    -0.00078379     0.00019281     0.00067579
H         1.21087932     0.95585954    -0.35263318     0.00091068    -0.00076174     0.00086297
H         1.14891649    -0.97484073    -0.46894357    -0.00052750     0.00075198    -0.00073036
     6
  Step:    44            Position(A)                                  Velocity(au)
C        -0.70961469    -0.02092628     0.01465732    -0.00032406    -0.00012121     0.00000924
C         0.67417846     0.01305524     0.01497608     0.00030732     0.00016725    -0.00002108
H        -1.13315315     1.00001025    -0.49301621     0.00064729    -0.00078850    -0.00075670
H        -1.36285369    -0.85723004    -0.34017481    -0.00078868     0.00023467     0.00071796
H         1.21338222     0.95367039    -0.35019885     0.00091980    -0.00083820     0.00091715
H         1.14740324    -0.97265867    -0.47095040    -0.00057896     0.00084335    -0.00073735
     6