     2
  Step:     0            Position(A)                                  Velocity(au)
He       -0.80000000     0.00000000     0.00000000     0.00000000     0.00000000     0.00000000
He        0.80000000     0.00000000     0.00000000     0.00000000     0.00000000     0.00000000
     2
  Step:     1            Position(A)                                  Velocity(au)
He       -0.79995138     0.00000000     0.00000000     0.00003556     0.00000000     0.00000000
He        0.79995138     0.00000000     0.00000000    -0.00003556     0.00000000     0.00000000
     2
  Step:     2            Position(A)                                  Velocity(au)
He       -0.79980550     0.00000000     0.00000000     0.00007113     0.00000000     0.00000000
He        0.79980550     0.00000000     0.00000000    -0.00007113     0.00000000     0.00000000
     2
  Step:     3            Position(A)                                  Velocity(au)
He       -0.79956233     0.00000000     0.00000000     0.00010672     0.00000000     0.00000000
He        0.79956233     0.00000000     0.00000000    -0.00010672     0.00000000     0.00000000
     2
  Step:     4            Position(A)                                  Velocity(au)
He       -0.79922182     0.00000000     0.00000000     0.00014233     0.00000000     0.00000000
He        0.79922182     0.00000000     0.00000000    -0.00014233     0.00000000     0.00000000
     2
  Step:     5            Position(A)                                  Velocity(au)
He       -0.79878389     0.00000000     0.00000000     0.00017797     0.00000000     0.00000000
He        0.79878389     0.00000000     0.00000000    -0.00017797     0.00000000     0.00000000
     2
  Step:     6            Position(A)                                  Velocity(au)
He       -0.79824843     0.00000000     0.00000000     0.00021366     0.00000000     0.00000000
He        0.79824843     0.00000000     0.00000000    -0.00021366     0.00000000     0.00000000
     2
  Step:     7            Position(A)                                  Velocity(au)
He       -0.79761534     0.00000000     0.00000000     0.00024939     0.00000000     0.00000000
He        0.79761534     0.00000000     0.00000000    -0.00024939     0.00000000     0.00000000
     2
  Step:     8            Position(A)                                  Velocity(au)
He       -0.79688447     0.00000000     0.00000000     0.00028518     0.00000000     0.00000000
He        0.79688447     0.00000000     0.00000000    -0.00028518     0.00000000     0.00000000
     2
  Step:     9            Position(A)                                  Velocity(au)
He       -0.79605565     0.00000000     0.00000000     0.00032103     0.00000000     0.00000000
He        0.79605565     0.00000000     0.00000000    -0.00032103     0.00000000     0.00000000
     2
  Step:    10            Position(A)                                  Velocity(au)
He       -0.79512870     0.00000000     0.00000000     0.00025516     0.00000000     0.00000000
He        0.79512870     0.00000000     0.00000000    -0.00025516     0.00000000     0.00000000
     2
  Step:    11            Position(A)                                  Velocity(au)
He       -0.79438178     0.00000000     0.00000000     0.00029115     0.00000000     0.00000000
He        0.79438178     0.00000000     0.00000000    -0.00029115     0.00000000     0.00000000
     2
  Step:    12            Position(A)                                  Velocity(au)
He       -0.79353635     0.00000000     0.00000000     0.00032720     0.00000000     0.00000000
He        0.79353635     0.00000000     0.00000000    -0.00032720     0.00000000     0.00000000
     2
  Step:    13            Position(A)                                  Velocity(au)
He       -0.79259224     0.00000000     0.00000000     0.00036333     0.00000000     0.00000000
He        0.79259224     0.00000000     0.00000000    -0.00036333     0.00000000     0.00000000
     2
  Step:    14            Position(A)                                  Velocity(au)
He       -0.79154924     0.00000000     0.00000000     0.00039953     0.00000000     0.00000000
He        0.79154924     0.00000000     0.00000000    -0.00039953     0.00000000     0.00000000
     2
  Step:    15            Position(A)                                  Velocity(au)
He       -0.79040711     0.00000000     0.00000000     0.00043583     0.00000000     0.00000000
He        0.79040711     0.00000000     0.00000000    -0.00043583     0.00000000     0.00000000
     2
  Step:    16            Position(A)                                  Velocity(au)
He       -0.78916561     0.00000000     0.00000000     0.00047221     0.00000000     0.00000000
He        0.78916561     0.00000000     0.00000000    -0.00047221     0.00000000     0.00000000
     2
  Step:    17            Position(A)                                  Velocity(au)
He       -0.78782447     0.00000000     0.00000000     0.00050870     0.00000000     0.00000000
He        0.78782447     0.00000000     0.00000000    -0.00050870     0.00000000     0.00000000
     2
  Step:    18            Position(A)                                  Velocity(au)
He       -0.78638341     0.00000000     0.00000000     0.00054530     0.00000000     0.00000000
He        0.78638341     0.00000000     0.00000000    -0.00054530     0.00000000     0.00000000
     2
  Step:    19            Position(A)                                  Velocity(au)
He       -0.78484210     0.00000000     0.00000000     0.00058201     0.00000000     0.00000000
He        0.78484210     0.00000000     0.00000000    -0.00058201     0.00000000     0.00000000
     2
  Step:    20            Position(A)                                  Velocity(au)
He       -0.78320024     0.00000000     0.00000000     0.00025516     0.00000000     0.00000000
He        0.78320024     0.00000000     0.00000000    -0.00025516     0.00000000     0.00000000
     2
  Step:    21            Position(A)                                  Velocity(au)
He       -0.78245203     0.00000000     0.00000000     0.00029208     0.00000000     0.00000000
He        0.78245203     0.00000000     0.00000000    -0.00029208     0.00000000     0.00000000
     2
  Step:    22            Position(A)                                  Velocity(au)
He       -0.78160276     0.00000000     0.00000000     0.00032907     0.00000000     0.00000000
He        0.78160276     0.00000000     0.00000000    -0.00032907     0.00000000     0.00000000
     2
  Step:    23            Position(A)                                  Velocity(au)
He       -0.78065225     0.00000000     0.00000000     0.00036613     0.00000000     0.00000000
He        0.78065225     0.00000000     0.00000000    -0.00036613     0.00000000     0.00000000
     2
  Step:    24            Position(A)                                  Velocity(au)
He       -0.77960031     0.00000000     0.00000000     0.00040326     0.00000000     0.00000000
He        0.77960031     0.00000000     0.00000000    -0.00040326     0.00000000     0.00000000
     2
  Step:    25            Position(A)                                  Velocity(au)
He       -0.77844671     0.00000000     0.00000000     0.00044048     0.00000000     0.00000000
He        0.77844671     0.00000000     0.00000000    -0.00044048     0.00000000     0.00000000
     2
  Step:    26            Position(A)                                  Velocity(au)
He       -0.77719123     0.00000000     0.00000000     0.00047778     0.00000000     0.00000000
He        0.77719123     0.00000000     0.00000000    -0.00047778     0.00000000     0.00000000
     2
  Step:    27            Position(A)                                  Velocity(au)
He       -0.77583361     0.00000000     0.00000000     0.00051518     0.00000000     0.00000000
He        0.77583361     0.00000000     0.00000000    -0.00051518     0.00000000     0.00000000
     2
  Step:    28            Position(A)                                  Velocity(au)
He       -0.77437357     0.00000000     0.00000000     0.00055269     0.00000000     0.00000000
He        0.77437357     0.00000000     0.00000000    -0.00055269     0.00000000     0.00000000
     2
  Step:    29            Position(A)                                  Velocity(au)
He       -0.77281084     0.00000000     0.00000000     0.00059030     0.00000000     0.00000000
He        0.77281084     0.00000000     0.00000000    -0.00059030     0.00000000     0.00000000
     2
  Step:    30            Position(A)                                  Velocity(au)
He       -0.77114509     0.00000000     0.00000000     0.00025516     0.00000000     0.00000000
He        0.77114509     0.00000000     0.00000000    -0.00025516     0.00000000     0.00000000
     2
  Step:    31            Position(A)                                  Velocity(au)
He       -0.77039567     0.00000000     0.00000000     0.00029297     0.00000000     0.00000000
He        0.77039567     0.00000000     0.00000000    -0.00029297     0.00000000     0.00000000
     2
  Step:    32            Position(A)                                  Velocity(au)
He       -0.76954277     0.00000000     0.00000000     0.00033084     0.00000000     0.00000000
He        0.76954277     0.00000000     0.00000000    -0.00033084     0.00000000     0.00000000
     2
  Step:    33            Position(A)                                  Velocity(au)
He       -0.76858623     0.00000000     0.00000000     0.00036877     0.00000000     0.00000000
He        0.76858623     0.00000000     0.00000000    -0.00036877     0.00000000     0.00000000
     2
  Step:    34            Position(A)                                  Velocity(au)
He       -0.76752587     0.00000000     0.00000000     0.00040678     0.00000000     0.00000000
He        0.76752587     0.00000000     0.00000000    -0.00040678     0.00000000     0.00000000
     2
  Step:    35            Position(A)                                  Velocity(au)
He       -0.76636148     0.00000000     0.00000000     0.00044485     0.00000000     0.00000000
He        0.76636148     0.00000000     0.00000000    -0.00044485     0.00000000     0.00000000
     2
  Step:    36            Position(A)                                  Velocity(au)
He       -0.76509286     0.00000000     0.00000000     0.00048302     0.00000000     0.00000000
He        0.76509286     0.00000000     0.00000000    -0.00048302     0.00000000     0.00000000
     2
  Step:    37            Position(A)                                  Velocity(au)
He       -0.76371975     0.00000000     0.00000000     0.00052127     0.00000000     0.00000000
He        0.76371975     0.00000000     0.00000000    -0.00052127     0.00000000     0.00000000
     2
  Step:    38            Position(A)                                  Velocity(au)
He       -0.76224193     0.00000000     0.00000000     0.00055961     0.00000000     0.00000000
He        0.76224193     0.00000000     0.00000000    -0.00055961     0.00000000     0.00000000
     2
  Step:    39            Position(A)                                  Velocity(au)
He       -0.76065910     0.00000000     0.00000000     0.00059806     0.00000000     0.00000000
He        0.76065910     0.00000000     0.00000000    -0.00059806     0.00000000     0.00000000
     2
  Step:    40            Position(A)                                  Velocity(au)
He       -0.75897101     0.00000000     0.00000000     0.00025516     0.00000000     0.00000000
He        0.75897101     0.00000000     0.00000000    -0.00025516     0.00000000     0.00000000
     2
  Step:    41            Position(A)                                  Velocity(au)
He       -0.75822047     0.00000000     0.00000000     0.00029379     0.00000000     0.00000000
He        0.75822047     0.00000000     0.00000000    -0.00029379     0.00000000     0.00000000
     2
  Step:    42            Position(A)                                  Velocity(au)
He       -0.75736423     0.00000000     0.00000000     0.00033246     0.00000000     0.00000000
He        0.75736423     0.00000000     0.00000000    -0.00033246     0.00000000     0.00000000
     2
  Step:    43            Position(A)                                  Velocity(au)
He       -0.75640214     0.00000000     0.00000000     0.00037120     0.00000000     0.00000000
He        0.75640214     0.00000000     0.00000000    -0.00037120     0.00000000     0.00000000
     2
  Step:    44            Position(A)                                  Velocity(au)
He       -0.75533405     0.00000000     0.00000000     0.00041000     0.00000000     0.00000000
He        0.75533405     0.00000000     0.00000000    -0.00041000     0.00000000     0.00000000
     2
  Step:    45            Position(A)                                  Velocity(au)
He       -0.75415976     0.00000000     0.00000000     0.00044887     0.00000000     0.00000000
He        0.75415976     0.00000000     0.00000000    -0.00044887     0.00000000     0.00000000
     2
  Step:    46            Position(A)                                  Velocity(au)
He       -0.75287909     0.00000000     0.00000000     0.00048781     0.00000000     0.00000000
He        0.75287909     0.00000000     0.00000000    -0.00048781     0.00000000     0.00000000
     2
  Step:    47            Position(A)                                  Velocity(au)
He       -0.75149182     0.00000000     0.00000000     0.00052683     0.00000000     0.00000000
He        0.75149182     0.00000000     0.00000000    -0.00052683     0.00000000     0.00000000
     2
  Step:    48            Position(A)                                  Velocity(au)
He       -0.74999774     0.00000000     0.00000000     0.00056593     0.00000000     0.00000000
He        0.74999774     0.00000000     0.00000000    -0.00056593     0.00000000     0.00000000
     2
  Step:    49            Position(A)                                  Velocity(au)
He       -0.74839660     0.00000000     0.00000000     0.00060513     0.00000000     0.00000000
He        0.74839660     0.00000000     0.00000000    -0.00060513     0.00000000     0.00000000
     2
  Step:    50            Position(A)                                  Velocity(au)
He       -0.74668816     0.00000000     0.00000000     0.00025516     0.00000000     0.00000000
He        0.74668816     0.00000000     0.00000000    -0.00025516     0.00000000     0.00000000
     2
  Step:    51            Position(A)                                  Velocity(au)
He       -0.74593663     0.00000000     0.00000000     0.00029451     0.00000000     0.00000000
He        0.74593663     0.00000000     0.00000000    -0.00029451     0.00000000     0.00000000
     2
  Step:    52            Position(A)                                  Velocity(au)
He       -0.74507743     0.00000000     0.00000000     0.00033390     0.00000000     0.00000000
He        0.74507743     0.00000000     0.00000000    -0.00033390     0.00000000     0.00000000
     2
  Step:    53            Position(A)                                  Velocity(au)
He       -0.74411043     0.00000000     0.00000000     0.00037335     0.00000000     0.00000000
He        0.74411043     0.00000000     0.00000000    -0.00037335     0.00000000     0.00000000
     2
  Step:    54            Position(A)                                  Velocity(au)
He       -0.74303549     0.00000000     0.00000000     0.00041285     0.00000000     0.00000000
He        0.74303549     0.00000000     0.00000000    -0.00041285     0.00000000     0.00000000
     2
  Step:    55            Position(A)                                  Velocity(au)
He       -0.74185247     0.00000000     0.00000000     0.00045240     0.00000000     0.00000000
He        0.74185247     0.00000000     0.00000000    -0.00045240     0.00000000     0.00000000
     2
  Step:    56            Position(A)                                  Velocity(au)
He       -0.74056119     0.00000000     0.00000000     0.00049202     0.00000000     0.00000000
He        0.74056119     0.00000000     0.00000000    -0.00049202     0.00000000     0.00000000
     2
  Step:    57            Position(A)                                  Velocity(au)
He       -0.73916148     0.00000000     0.00000000     0.00053171     0.00000000     0.00000000
He        0.73916148     0.00000000     0.00000000    -0.00053171     0.00000000     0.00000000
     2
  Step:    58            Position(A)                                  Velocity(au)
He       -0.73765316     0.00000000     0.00000000     0.00057146     0.00000000     0.00000000
He        0.73765316     0.00000000     0.00000000    -0.00057146     0.00000000     0.00000000
     2
  Step:    59            Position(A)                                  Velocity(au)
He       -0.73603602     0.00000000     0.00000000     0.00061129     0.00000000     0.00000000
He        0.73603602     0.00000000     0.00000000    -0.00061129     0.00000000     0.00000000
     2
  Step:    60            Position(A)                                  Velocity(au)
He       -0.73430987     0.00000000     0.00000000     0.00025516     0.00000000     0.00000000
He        0.73430987     0.00000000     0.00000000    -0.00025516     0.00000000     0.00000000
     2
  Step:    61            Position(A)                                  Velocity(au)
He       -0.73355751     0.00000000     0.00000000     0.00029511     0.00000000     0.00000000
He        0.73355751     0.00000000     0.00000000    -0.00029511     0.00000000     0.00000000
     2
  Step:    62            Position(A)                                  Velocity(au)
He       -0.73269583     0.00000000     0.00000000     0.00033510     0.00000000     0.00000000
He        0.73269583     0.00000000     0.00000000    -0.00033510     0.00000000     0.00000000
     2
  Step:    63            Position(A)                                  Velocity(au)
He       -0.73172475     0.00000000     0.00000000     0.00037513     0.00000000     0.00000000
He        0.73172475     0.00000000     0.00000000    -0.00037513     0.00000000     0.00000000
     2
  Step:    64            Position(A)                                  Velocity(au)
He       -0.73064414     0.00000000     0.00000000     0.00041521     0.00000000     0.00000000
He        0.73064414     0.00000000     0.00000000    -0.00041521     0.00000000     0.00000000
     2
  Step:    65            Position(A)                                  Velocity(au)
He       -0.72945389     0.00000000     0.00000000     0.00045532     0.00000000     0.00000000
He        0.72945389     0.00000000     0.00000000    -0.00045532     0.00000000     0.00000000
     2
  Step:    66            Position(A)                                  Velocity(au)
He       -0.72815387     0.00000000     0.00000000     0.00049549     0.00000000     0.00000000
He        0.72815387     0.00000000     0.00000000    -0.00049549     0.00000000     0.00000000
     2
  Step:    67            Position(A)                                  Velocity(au)
He       -0.72674395     0.00000000     0.00000000     0.00053570     0.00000000     0.00000000
He        0.72674395     0.00000000     0.00000000    -0.00053570     0.00000000     0.00000000
     2
  Step:    68            Position(A)                                  Velocity(au)
He       -0.72522399     0.00000000     0.00000000     0.00057597     0.00000000     0.00000000
He        0.72522399     0.00000000     0.00000000    -0.00057597     0.00000000     0.00000000
     2
  Step:    69            Position(A)                                  Velocity(au)
He       -0.72359385     0.00000000     0.00000000     0.00061629     0.00000000     0.00000000
He        0.72359385     0.00000000     0.00000000    -0.00061629     0.00000000     0.00000000
     2
  Step:    70            Position(A)                                  Velocity(au)
He       -0.72185337     0.00000000     0.00000000     0.00025516     0.00000000     0.00000000
He        0.72185337     0.00000000     0.00000000    -0.00025516     0.00000000     0.00000000
     2
  Step:    71            Position(A)                                  Velocity(au)
He       -0.72110037     0.00000000     0.00000000     0.00029557     0.00000000     0.00000000
He        0.72110037     0.00000000     0.00000000    -0.00029557     0.00000000     0.00000000
     2
  Step:    72            Position(A)                                  Velocity(au)
He       -0.72023683     0.00000000     0.00000000     0.00033601     0.00000000     0.00000000
He        0.72023683     0.00000000     0.00000000    -0.00033601     0.00000000     0.00000000
     2
  Step:    73            Position(A)                                  Velocity(au)
He       -0.71926267     0.00000000     0.00000000     0.00037647     0.00000000     0.00000000
He        0.71926267     0.00000000     0.00000000    -0.00037647     0.00000000     0.00000000
     2
  Step:    74            Position(A)                                  Velocity(au)
He       -0.71817783     0.00000000     0.00000000     0.00041696     0.00000000     0.00000000
He        0.71817783     0.00000000     0.00000000    -0.00041696     0.00000000     0.00000000
     2
  Step:    75            Position(A)                                  Velocity(au)
He       -0.71698221     0.00000000     0.00000000     0.00045748     0.00000000     0.00000000
He        0.71698221     0.00000000     0.00000000    -0.00045748     0.00000000     0.00000000
     2
  Step:    76            Position(A)                                  Velocity(au)
He       -0.71567574     0.00000000     0.00000000     0.00049804     0.00000000     0.00000000
He        0.71567574     0.00000000     0.00000000    -0.00049804     0.00000000     0.00000000
     2
  Step:    77            Position(A)                                  Velocity(au)
He       -0.71425833     0.00000000     0.00000000     0.00053862     0.00000000     0.00000000
He        0.71425833     0.00000000     0.00000000    -0.00053862     0.00000000     0.00000000
     2
  Step:    78            Position(A)                                  Velocity(au)
He       -0.71272989     0.00000000     0.00000000     0.00057924     0.00000000     0.00000000
He        0.71272989     0.00000000     0.00000000    -0.00057924     0.00000000     0.00000000
     2
  Step:    79            Position(A)                                  Velocity(au)
He       -0.71109032     0.00000000     0.00000000     0.00061989     0.00000000     0.00000000
He        0.71109032     0.00000000     0.00000000    -0.00061989     0.00000000     0.00000000
     2
  Step:    80            Position(A)                                  Velocity(au)
He       -0.70933956     0.00000000     0.00000000     0.00025516     0.00000000     0.00000000
He        0.70933956     0.00000000     0.00000000    -0.00025516     0.00000000     0.00000000
     2
  Step:    81            Position(A)                                  Velocity(au)
He       -0.70858616     0.00000000     0.00000000     0.00029586     0.00000000     0.00000000
He        0.70858616     0.00000000     0.00000000    -0.00029586     0.00000000     0.00000000
     2
  Step:    82            Position(A)                                  Velocity(au)
He       -0.70772144     0.00000000     0.00000000     0.00033657     0.00000000     0.00000000
He        0.70772144     0.00000000     0.00000000    -0.00033657     0.00000000     0.00000000
     2
  Step:    83            Position(A)                                  Velocity(au)
He       -0.70674536     0.00000000     0.00000000     0.00037730     0.00000000     0.00000000
He        0.70674536     0.00000000     0.00000000    -0.00037730     0.00000000     0.00000000
     2
  Step:    84            Position(A)                                  Velocity(au)
He       -0.70565789     0.00000000     0.00000000     0.00041804     0.00000000     0.00000000
He        0.70565789     0.00000000     0.00000000    -0.00041804     0.00000000     0.00000000
     2
  Step:    85            Position(A)                                  Velocity(au)
He       -0.70445899     0.00000000     0.00000000     0.00045880     0.00000000     0.00000000
He        0.70445899     0.00000000     0.00000000    -0.00045880     0.00000000     0.00000000
     2
  Step:    86            Position(A)                                  Velocity(au)
He       -0.70314862     0.00000000     0.00000000     0.00049957     0.00000000     0.00000000
He        0.70314862     0.00000000     0.00000000    -0.00049957     0.00000000     0.00000000
     2
  Step:    87            Position(A)                                  Velocity(au)
He       -0.70172675     0.00000000     0.00000000     0.00054035     0.00000000     0.00000000
He        0.70172675     0.00000000     0.00000000    -0.00054035     0.00000000     0.00000000
     2
  Step:    88            Position(A)                                  Velocity(au)
He       -0.70019335     0.00000000     0.00000000     0.00058113     0.00000000     0.00000000
He        0.70019335     0.00000000     0.00000000    -0.00058113     0.00000000     0.00000000
     2
  Step:    89            Position(A)                                  Velocity(au)
He       -0.69854839     0.00000000     0.00000000     0.00062193     0.00000000     0.00000000
He        0.69854839     0.00000000     0.00000000    -0.00062193     0.00000000     0.00000000
     2
  Step:    90            Position(A)                                  Velocity(au)
He       -0.69679186     0.00000000     0.00000000     0.00025516     0.00000000     0.00000000
He        0.69679186     0.00000000     0.00000000    -0.00025516     0.00000000     0.00000000
     2
  Step:    91            Position(A)                                  Velocity(au)
He       -0.69603832     0.00000000     0.00000000     0.00029596     0.00000000     0.00000000
He        0.69603832     0.00000000     0.00000000    -0.00029596     0.00000000     0.00000000
     2
  Step:    92            Position(A)                                  Velocity(au)
He       -0.69517320     0.00000000     0.00000000     0.00033676     0.00000000     0.00000000
He        0.69517320     0.00000000     0.00000000    -0.00033676     0.00000000     0.00000000
     2
  Step:    93            Position(A)                                  Velocity(au)
He       -0.69419651     0.00000000     0.00000000     0.00037756     0.00000000     0.00000000
He        0.69419651     0.00000000     0.00000000    -0.00037756     0.00000000     0.00000000
     2
  Step:    94            Position(A)                                  Velocity(au)
He       -0.69310825     0.00000000     0.00000000     0.00041835     0.00000000     0.00000000
He        0.69310825     0.00000000     0.00000000    -0.00041835     0.00000000     0.00000000
     2
  Step:    95            Position(A)                                  Velocity(au)
He       -0.69190844     0.00000000     0.00000000     0.00045914     0.00000000     0.00000000
He        0.69190844     0.00000000     0.00000000    -0.00045914     0.00000000     0.00000000
     2
  Step:    96            Position(A)                                  Velocity(au)
He       -0.69059711     0.00000000     0.00000000     0.00049992     0.00000000     0.00000000
He        0.69059711     0.00000000     0.00000000    -0.00049992     0.00000000     0.00000000
     2
  Step:    97            Position(A)                                  Velocity(au)
He       -0.68917426     0.00000000     0.00000000     0.00054069     0.00000000     0.00000000
He        0.68917426     0.00000000     0.00000000    -0.00054069     0.00000000     0.00000000
     2
  Step:    98            Position(A)                                  Velocity(au)
He       -0.68763996     0.00000000     0.00000000     0.00058144     0.00000000     0.00000000
He        0.68763996     0.00000000     0.00000000    -0.00058144     0.00000000     0.00000000
     2
  Step:    99            Position(A)                                  Velocity(au)
He       -0.68599424     0.00000000     0.00000000     0.00062217     0.00000000     0.00000000
He        0.68599424     0.00000000     0.00000000    -0.00062217     0.00000000     0.00000000
     2
  Step:   100            Position(A)                                  Velocity(au)
He       -0.68423718     0.00000000     0.00000000     0.00025516     0.00000000     0.00000000
He        0.68423718     0.00000000     0.00000000    -0.00025516     0.00000000     0.00000000
     2
  Step:   101            Position(A)                                  Velocity(au)
He       -0.68348380     0.00000000     0.00000000     0.00029583     0.00000000     0.00000000
He        0.68348380     0.00000000     0.00000000    -0.00029583     0.00000000     0.00000000
     2
  Step:   102            Position(A)                                  Velocity(au)
He       -0.68261920     0.00000000     0.00000000     0.00033650     0.00000000     0.00000000
He        0.68261920     0.00000000     0.00000000    -0.00033650     0.00000000     0.00000000
     2
  Step:   103            Position(A)                                  Velocity(au)
He       -0.68164343     0.00000000     0.00000000     0.00037714     0.00000000     0.00000000
He        0.68164343     0.00000000     0.00000000    -0.00037714     0.00000000     0.00000000
     2
  Step:   104            Position(A)                                  Velocity(au)
He       -0.68055656     0.00000000     0.00000000     0.00041775     0.00000000     0.00000000
He        0.68055656     0.00000000     0.00000000    -0.00041775     0.00000000     0.00000000
     2
  Step:   105            Position(A)                                  Velocity(au)
He       -0.67935865     0.00000000     0.00000000     0.00045834     0.00000000     0.00000000
He        0.67935865     0.00000000     0.00000000    -0.00045834     0.00000000     0.00000000
     2
  Step:   106            Position(A)                                  Velocity(au)