     6
  Step:  1000            Position(A)                                  Velocity(au)
C        -0.69687867    -0.00405296    -0.05757911    -0.00025178    -0.00009511    -0.00002295
C         0.66072048     0.00547606    -0.03579023     0.00028758     0.00011882     0.00020538
H        -1.30077832     0.91109746    -0.00950268     0.00003926     0.00013123     0.00030646
H        -1.25801723    -0.89465751    -0.05379286     0.00008213     0.00056602    -0.00066041
H         1.15597797     0.91744434    -0.06817289    -0.00046722    -0.00038946    -0.00136934
H         1.27619905    -0.92084208    -0.05716079    -0.00008075    -0.00059033    -0.00045058
