     9
  Step:  1000            Position(A)                                  Velocity(au)
C         6.81727150     7.54732614     7.60330702    -0.00005672    -0.00003202    -0.00002136
N         7.93641115     6.95972377     7.53091032    -0.00002989    -0.00022752    -0.00010041
H         5.98495353     7.11118646     7.02633478    -0.00093843     0.00132826     0.00008292
H         6.81400084     8.45974089     8.22614381     0.00085372    -0.00020864     0.00115049
H         8.19689914     6.22354908     6.84389027     0.00123810    -0.00049481     0.00085507
H         8.70821735     7.17573599     8.18339936    -0.00059012     0.00045884     0.00030863
O         9.11462634    10.50808169     7.04803713    -0.00005191     0.00011839    -0.00004367
H         8.89137525    11.42061664     6.86405408     0.00014286     0.00013197    -0.00014713
H         9.29144086    10.12292796     6.18790676     0.00120791     0.00044387     0.00009390
