     9
  Step:     0            Position(A)                                  Velocity(au)
C         6.79554999     7.55605723     7.51409468     0.00013271     0.00013888    -0.00009336
N         8.05410625     7.30887334     7.51001345    -0.00018449    -0.00043517    -0.00005298
H         6.39647963     7.93655869     6.56275280    -0.00105895    -0.00041136     0.00057365
H         6.11259940     7.40974363     8.36320140     0.00028111    -0.00043589     0.00071349
H         8.64921781     7.03764388     8.31439330    -0.00051486     0.00088054     0.00049195
H         8.58738296     7.66765418     6.67063625     0.00091084     0.00044118     0.00088032
O         9.05007579    10.16245887     7.03576174     0.00012189     0.00024304    -0.00005104
H         8.95211500    11.11557303     7.04483075    -0.00013367     0.00023902     0.00029662
H         8.83723871     9.88618769     7.92834906    -0.00043007    -0.00017524    -0.00031385
     9
  Step:     1            Position(A)                                  Velocity(au)
C         6.79588282     7.55644227     7.51384131     0.00011055     0.00014275    -0.00009183
N         8.05363768     7.30767797     7.50986588    -0.00015813    -0.00043909    -0.00005498
H         6.39348735     7.93546433     6.56425860    -0.00112936    -0.00038905     0.00052733
H         6.11330729     7.40855331     8.36519010     0.00023745    -0.00043459     0.00073998
H         8.64780967     7.04003884     8.31574730    -0.00051478     0.00087087     0.00049866
H         8.58988553     7.66883827     6.67307778     0.00091902     0.00042474     0.00090530
O         9.05040968    10.16312467     7.03562193     0.00012230     0.00024391    -0.00005121
H         8.95174853    11.11622228     7.04564498    -0.00013434     0.00023572     0.00029886
H         8.83605941     9.88570896     7.92748826    -0.00043243    -0.00017489    -0.00031571
     9
  Step:     2            Position(A)                                  Velocity(au)
C         6.79615462     7.55683797     7.51359244     0.00008811     0.00014668    -0.00009008
N         8.05324141     7.30647187     7.50971276    -0.00013164    -0.00044301    -0.00005703
H         6.39030289     7.93443091     6.56563690    -0.00119938    -0.00036688     0.00048057
H         6.11389808     7.40736678     8.36724852     0.00019551    -0.00043310     0.00076443
H         8.64640234     7.04240685     8.31712059    -0.00051427     0.00086083     0.00050606
H         8.59240931     7.66997717     6.67558757     0.00092638     0.00040814     0.00093018
O         9.05074469    10.16379285     7.03548166     0.00012271     0.00024478    -0.00005137
H         8.95138024    11.11686226     7.04646528    -0.00013500     0.00023226     0.00030106
H         8.83487366     9.88523119     7.92662236    -0.00043479    -0.00017455    -0.00031757
     9
  Step:     3            Position(A)                                  Velocity(au)
C         6.79636469     7.55724447     7.51334866     0.00006542     0.00015065    -0.00008812
N         8.05291769     7.30525502     7.50955394    -0.00010510    -0.00044694    -0.00005914
H         6.38692766     7.93345779     6.56688694    -0.00126876    -0.00034502     0.00043370
H         6.11437656     7.40618458     8.36937093     0.00015535    -0.00043141     0.00078673
H         8.64499702     7.04474691     8.31851504    -0.00051332     0.00085042     0.00051414
H         8.59495213     7.67107050     6.67816516     0.00093299     0.00039144     0.00095484
O         9.05108082    10.16446344     7.03534095     0.00012312     0.00024567    -0.00005153
H         8.95101020    11.11749256     7.04729152    -0.00013563     0.00022866     0.00030321
H         8.83368147     9.88475432     7.92575137    -0.00043714    -0.00017422    -0.00031945
     9
  Step:     4            Position(A)                                  Velocity(au)
C         6.79651243     7.55766191     7.51311052     0.00004255     0.00015467    -0.00008596
N         8.05266658     7.30402745     7.50938929    -0.00007858    -0.00045085    -0.00006130
H         6.38336375     7.93254392     6.56800889    -0.00133726    -0.00032362     0.00038705
H         6.11474770     7.40500728     8.37155134     0.00011703    -0.00042951     0.00080681
H         8.64359488     7.04705801     8.31993253    -0.00051194     0.00083965     0.00052290
H         8.59751204     7.67211805     6.68080979     0.00093892     0.00037468     0.00097915
O         9.05141806    10.16513646     7.03519981     0.00012352     0.00024655    -0.00005169
H         8.95063846    11.11811284     7.04812359    -0.00013624     0.00022494     0.00030531
H         8.83248284     9.88427834     7.92487524    -0.00043949    -0.00017391    -0.00032133
     9
  Step:     5            Position(A)                                  Velocity(au)
C         6.79659741     7.55809040     7.51287852     0.00001954     0.00015873    -0.00008363
N         8.05248793     7.30278921     7.50921868    -0.00005214    -0.00045474    -0.00006350
H         6.37961388     7.93168784     6.56900382    -0.00140464    -0.00030283     0.00034096
H         6.11501664     7.40383551     8.37378355     0.00008062    -0.00042736     0.00082459
H         8.64219708     7.04933915     8.32137490    -0.00051016     0.00082851     0.00053233
H         8.60008727     7.67311970     6.68352036     0.00094423     0.00035790     0.00100301
O         9.05175640    10.16581190     7.03505826     0.00012392     0.00024745    -0.00005184
H         8.95026506    11.11872283     7.04896133    -0.00013684     0.00022115     0.00030736
H         8.83127780     9.88380320     7.92399392    -0.00044183    -0.00017361    -0.00032324
     9
  Step:     6            Position(A)                                  Velocity(au)
C         6.79661931     7.55853003     7.51265313    -0.00000355     0.00016282    -0.00008114
N         8.05238143     7.30154037     7.50904200    -0.00002584    -0.00045859    -0.00006574
H         6.37568143     7.93088769     6.56987368    -0.00147069    -0.00028279     0.00029573
H         6.11518861     7.40266996     8.37606120     0.00004614    -0.00042495     0.00084001
H         8.64080472     7.05158931     8.32284398    -0.00050797     0.00081700     0.00054243
H         8.60267626     7.67407548     6.68629547     0.00094901     0.00034115     0.00102629
O         9.05209584    10.16648979     7.03491631     0.00012432     0.00024834    -0.00005198
H         8.94989006    11.11932236     7.04980461    -0.00013742     0.00021731     0.00030936
H         8.83006636     9.88332884     7.92310734    -0.00044417    -0.00017333    -0.00032518
     9
  Step:     7            Position(A)                                  Velocity(au)
C         6.79657798     7.55898089     7.51243477    -0.00002668     0.00016694    -0.00007850
N         8.05234658     7.30028105     7.50885916     0.00000023    -0.00046240    -0.00006801
H         6.37157032     7.93014120     6.57062124    -0.00153521    -0.00026364     0.00025166
H         6.11526898     7.40151135     8.37837778     0.00001362    -0.00042228     0.00085304
H         8.63941886     7.05380751     8.32434156    -0.00050541     0.00080512     0.00055316
H         8.60527763     7.67498552     6.68913339     0.00095333     0.00032448     0.00104889
O         9.05243635    10.16717012     7.03477399     0.00012472     0.00024923    -0.00005211
H         8.94951348    11.11991134     7.05065329    -0.00013799     0.00021345     0.00031130
H         8.82884855     9.88285523     7.92221542    -0.00044649    -0.00017306    -0.00032716
     9
  Step:     8            Position(A)                                  Velocity(au)
C         6.79647340     7.55944305     7.51222378    -0.00004978     0.00017107    -0.00007575
N         8.05238269     7.29901139     7.50867007     0.00002603    -0.00046616    -0.00007030
H         6.36728503     7.92944580     6.57125008    -0.00159800    -0.00024549     0.00020903
H         6.11526313     7.40036044     8.38072669    -0.00001691    -0.00041932     0.00086364
H         8.63804051     7.05599272     8.32586934    -0.00050250     0.00079289     0.00056451
H         8.60789025     7.67585011     6.69203210     0.00095727     0.00030793     0.00107070
O         9.05277794    10.16785289     7.03463132     0.00012511     0.00025012    -0.00005223
H         8.94913537    11.12048974     7.05150719    -0.00013855     0.00020960     0.00031318
H         8.82762440     9.88238232     7.92131803    -0.00044880    -0.00017282    -0.00032918
     9
  Step:     9            Position(A)                                  Velocity(au)
C         6.79630570     7.55991653     7.51202049    -0.00007282     0.00017522    -0.00007288
N         8.05248892     7.29773155     7.50847468     0.00005148    -0.00046984    -0.00007261
H         6.36283049     7.92879858     6.57176449    -0.00165891    -0.00022844     0.00016809
H         6.11517649     7.39921802     8.38310124    -0.00004546    -0.00041606     0.00087180
H         8.63667060     7.05814399     8.32742897    -0.00049925     0.00078029     0.00057644
H         8.61051317     7.67666966     6.69498928     0.00096090     0.00029155     0.00109160
O         9.05312060    10.16853810     7.03448832     0.00012550     0.00025101    -0.00005235
H         8.94875573    11.12105766     7.05236615    -0.00013910     0.00020579     0.00031500
H         8.82639395     9.88191003     7.92041507    -0.00045110    -0.00017260    -0.00033124
     9
  Step:    10            Position(A)                                  Velocity(au)
C         6.79607514     7.56040138     7.51182516    -0.00009573     0.00017938    -0.00006994
N         8.05266426     7.29644170     7.50827297     0.00007654    -0.00047346    -0.00007492
H         6.35821204     7.92819638     6.57216940    -0.00171782    -0.00021260     0.00012906
H         6.11501449     7.39808489     8.38549475    -0.00007203    -0.00041251     0.00087750
H         8.63530999     7.06026033     8.32902203    -0.00049571     0.00076735     0.00058893
H         8.61314566     7.67744468     6.69800230     0.00096431     0.00027539     0.00111149
O         9.05346431    10.16922572     7.03434502     0.00012588     0.00025189    -0.00005246
H         8.94837460    11.12161525     7.05323001    -0.00013965     0.00020206     0.00031676
H         8.82515724     9.88143832     7.91950638    -0.00045338    -0.00017240    -0.00033337
     9
  Step:    11            Position(A)                                  Velocity(au)
C         6.79578215     7.56089759     7.51163800    -0.00011846     0.00018353    -0.00006692
N         8.05290754     7.29514208     7.50806494     0.00010115    -0.00047700    -0.00007722
H         6.35343532     7.92763581     6.57247033    -0.00177463    -0.00019803     0.00009213
H         6.11478254     7.39696190     8.38790050    -0.00009663    -0.00040865     0.00088076
H         8.63395946     7.06234078     8.33064996    -0.00049190     0.00075406     0.00060193
H         8.61578718     7.67817585     6.70106826     0.00096756     0.00025950     0.00113027
O         9.05380908    10.16991575     7.03420143     0.00012626     0.00025277    -0.00005255
H         8.94799197    11.12216276     7.05409860    -0.00014019     0.00019843     0.00031846
H         8.82391433     9.88096711     7.91859181    -0.00045564    -0.00017223    -0.00033555
     9
  Step:    12            Position(A)                                  Velocity(au)
C         6.79542727     7.56140515     7.51145918    -0.00014096     0.00018767    -0.00006385
N         8.05321746     7.29383289     7.50785062     0.00012525    -0.00048045    -0.00007951
H         6.34850619     7.92711330     6.57267329    -0.00182926    -0.00018479     0.00005748
H         6.11448598     7.39584990     8.39031181    -0.00011929    -0.00040448     0.00088158
H         8.63261968     7.06438443     8.33231410    -0.00048786     0.00074043     0.00061539
H         8.61843744     7.67886396     6.70418399     0.00097072     0.00024392     0.00114784
O         9.05415488    10.17060815     7.03405759     0.00012664     0.00025363    -0.00005264
H         8.94760786    11.12270051     7.05497172    -0.00014073     0.00019493     0.00032008
H         8.82266527     9.88049635     7.91767118    -0.00045788    -0.00017208    -0.00033780
     9
  Step:    13            Position(A)                                  Velocity(au)
C         6.79501119     7.56192402     7.51128881    -0.00016319     0.00019180    -0.00006074
N         8.05359259     7.29251440     7.50763008     0.00014881    -0.00048381    -0.00008177
H         6.34343066     7.92662516     6.57278468    -0.00188169    -0.00017291     0.00002522
H         6.11413011     7.39474973     8.39272208    -0.00014003    -0.00039999     0.00088001
H         8.63129122     7.06639035     8.33401566    -0.00048364     0.00072647     0.00062926
H         8.62109630     7.67950991     6.70734608     0.00097389     0.00022869     0.00116413
O         9.05450172    10.17130291     7.03391352     0.00012702     0.00025448    -0.00005272
H         8.94722226    11.12322889     7.05584920    -0.00014128     0.00019160     0.00032164
H         8.82141010     9.88002597     7.91674431    -0.00046009    -0.00017196    -0.00034012
     9
  Step:    14            Position(A)                                  Velocity(au)
C         6.79453476     7.56245413     7.51112698    -0.00018508     0.00019589    -0.00005762
N         8.05403136     7.29118685     7.50740343     0.00017178    -0.00048707    -0.00008397
H         6.33821478     7.92616760     6.57281123    -0.00193191    -0.00016243    -0.00000453
H         6.11372012     7.39366226     8.39512477    -0.00015889    -0.00039519     0.00087606
H         8.62997456     7.06835767     8.33575569    -0.00047926     0.00071220     0.00064349
H         8.62376386     7.68011473     6.71055086     0.00097712     0.00021386     0.00117903
O         9.05484959    10.17199999     7.03376926     0.00012739     0.00025533    -0.00005279
H         8.94683517    11.12374840     7.05673085    -0.00014183     0.00018845     0.00032313
H         8.82014891     9.87955588     7.91581099    -0.00046229    -0.00017186    -0.00034252
     9
  Step:    15            Position(A)                                  Velocity(au)
C         6.79399894     7.56299540     7.51097370    -0.00020660     0.00019995    -0.00005449
N         8.05453211     7.28985052     7.50717080     0.00019412    -0.00049022    -0.00008612
H         6.33286459     7.92573681     6.57275992    -0.00197993    -0.00015334    -0.00003169
H         6.11326110     7.39258835     8.39751345    -0.00017591    -0.00039007     0.00086978
H         8.62867004     7.07028553     8.33753507    -0.00047478     0.00069762     0.00065802
H         8.62644038     7.68067957     6.71379445     0.00098048     0.00019947     0.00119247
O         9.05519847    10.17269934     7.03362483     0.00012776     0.00025615    -0.00005284
H         8.94644656    11.12425957     7.05761648    -0.00014239     0.00018551     0.00032455
H         8.81888176     9.87908601     7.91487102    -0.00046445    -0.00017180    -0.00034499
     9
  Step:    16            Position(A)                                  Velocity(au)
C         6.79340482     7.56354773     7.51082897    -0.00022770     0.00020397    -0.00005137
N         8.05509307     7.28850570     7.50693240     0.00021580    -0.00049328    -0.00008819
H         6.32738606     7.92532894     6.57263790    -0.00202580    -0.00014566    -0.00005622
H         6.11275802     7.39152886     8.39988182    -0.00019114    -0.00038464     0.00086123
H         8.62737789     7.07217310     8.33935454    -0.00047024     0.00068274     0.00067277
H         8.62912633     7.68120570     6.71707274     0.00098404     0.00018557     0.00120438
O         9.05554836    10.17340095     7.03348026     0.00012813     0.00025697    -0.00005289
H         8.94605642    11.12476302     7.05850590    -0.00014295     0.00018281     0.00032590
H         8.81760871     9.87861629     7.91392416    -0.00046659    -0.00017176    -0.00034755
     9
  Step:    17            Position(A)                                  Velocity(au)
C         6.79275362     7.56411096     7.51069273    -0.00024832     0.00020793    -0.00004828
N         8.05571238     7.28715268     7.50668845     0.00023678    -0.00049622    -0.00009018
H         6.32178504     7.92494018     6.57245244    -0.00206955    -0.00013936    -0.00007807
H         6.11221572     7.39048464     8.40222373    -0.00020463    -0.00037891     0.00085046
H         8.62609821     7.07401959     8.34121461    -0.00046569     0.00066758     0.00068768
H         8.63182235     7.68169448     6.72038146     0.00098787     0.00017218     0.00121469
O         9.05589926    10.17410475     7.03333558     0.00012850     0.00025776    -0.00005292
H         8.94566472    11.12525942     7.05939890    -0.00014353     0.00018037     0.00032718
H         8.81632985     9.87814662     7.91297018    -0.00046870    -0.00017175    -0.00035020
     9
  Step:    18            Position(A)                                  Velocity(au)
C         6.79204668     7.56468496     7.51056491    -0.00026844     0.00021183    -0.00004523
N         8.05638809     7.28579176     7.50643920     0.00025704    -0.00049905    -0.00009205
H         6.31606725     7.92456675     6.57221090    -0.00211121    -0.00013444    -0.00009723
H         6.11163887     7.38945653     8.40453320    -0.00021643    -0.00037287     0.00083754
H         8.62483095     7.07582425     8.34311562    -0.00046117     0.00065215     0.00070268
H         8.63452922     7.68214738     6.72371616     0.00099202     0.00015935     0.00122335
O         9.05625115    10.17481070     7.03319083     0.00012886     0.00025854    -0.00005294
H         8.94527143    11.12574949     7.06029530    -0.00014412     0.00017820     0.00032838
H         8.81504526     9.87767693     7.91200886    -0.00047079    -0.00017178    -0.00035293
     9
  Step:    19            Position(A)                                  Velocity(au)
C         6.79128545     7.56526953     7.51044538    -0.00028801     0.00021566    -0.00004222
N         8.05711817     7.28442326     7.50618498     0.00027653    -0.00050176    -0.00009381
H         6.31023833     7.92420488     6.57192070    -0.00215082    -0.00013089    -0.00011366
H         6.11103199     7.38844534     8.40680444    -0.00022662    -0.00036653     0.00082254
H         8.62357595     7.07758634     8.34505771    -0.00045675     0.00063646     0.00071768
H         8.63724792     7.68256598     6.72707223     0.00099654     0.00014710     0.00123030
O         9.05660402    10.17551875     7.03304603     0.00012922     0.00025930    -0.00005295
H         8.94487652    11.12623402     7.06119488    -0.00014472     0.00017632     0.00032951
H         8.81375502     9.87720711     7.91103993    -0.00047284    -0.00017184    -0.00035576
     9
  Step:    20            Position(A)                                  Velocity(au)
C         6.79047150     7.56586447     7.51033398    -0.00023945     0.00017115    -0.00003064
N         8.05790051     7.28304751     7.50592612     0.00023030    -0.00039341    -0.00007445
H         6.30430390     7.92385085     6.57158929    -0.00170698    -0.00010040    -0.00009932
H         6.11039942     7.38745189     8.40903185    -0.00018350    -0.00028073     0.00062833
H         8.62233290     7.07930517     8.34704078    -0.00035293     0.00048402     0.00057145
H         8.63997953     7.68295193     6.73044494     0.00078118     0.00010568     0.00096372
O         9.05695787    10.17622886     7.03290122     0.00010107     0.00020284    -0.00004130
H         8.94447994    11.12671382     7.06209745    -0.00011336     0.00013631     0.00025785
H         8.81245922     9.87673709     7.91006314    -0.00037040    -0.00013412    -0.00027977
     9
  Step:    21            Position(A)                                  Velocity(au)
C         6.78979115     7.56633756     7.51025417    -0.00025787     0.00017482    -0.00002776
N         8.05855533     7.28196824     7.50572039     0.00024828    -0.00039588    -0.00007596
H         6.29958607     7.92357834     6.57130087    -0.00174262    -0.00009945    -0.00011051
H         6.10988686     7.38669346     8.41072551    -0.00019081    -0.00027385     0.00060961
H         8.62137352     7.08060681     8.34862382    -0.00034881     0.00046787     0.00058625
H         8.64212282     7.68322546     6.73308625     0.00078654     0.00009463     0.00096734
O         9.05723475    10.17678453     7.03278828     0.00010143     0.00020356    -0.00004129
H         8.94416908    11.12708463     7.06280395    -0.00011400     0.00013502     0.00025884
H         8.81144358     9.87637018     7.90929402    -0.00037239    -0.00013424    -0.00028277
     9
  Step:    22            Position(A)                                  Velocity(au)
C         6.78906114     7.56682058     7.51018215    -0.00027576     0.00017841    -0.00002495
N         8.05925844     7.28088234     7.50551069     0.00026560    -0.00039825    -0.00007736
H         6.29477309     7.92330694     6.57098487    -0.00177652    -0.00009961    -0.00011946
H         6.10935587     7.38595413     8.41236596    -0.00019701    -0.00026677     0.00058947
H         8.62042519     7.08186405     8.35024710    -0.00034487     0.00045155     0.00060085
H         8.64428131     7.68346949     6.73573553     0.00079231     0.00008412     0.00096953
O         9.05751259    10.17734216     7.03267539     0.00010178     0.00020426    -0.00004127
H         8.94385647    11.12745226     7.06351308    -0.00011464     0.00013399     0.00025977
H         8.81042254     9.87600287     7.90851660    -0.00037435    -0.00013441    -0.00028584
     9
  Step:    23            Position(A)                                  Velocity(au)
C         6.78828294     7.56731333     7.51011773    -0.00029309     0.00018192    -0.00002221
N         8.06000796     7.27979011     7.50529732     0.00028221    -0.00040051    -0.00007864
H         6.28986990     7.92303357     6.57064750    -0.00180857    -0.00010089    -0.00012613
H         6.10880938     7.38523446     8.41394945    -0.00020217    -0.00025948     0.00056798
H         8.61948733     7.08307643     8.35191002    -0.00034117     0.00043507     0.00061519
H         8.64645613     7.68368552     6.73838885     0.00079851     0.00007416     0.00097028
O         9.05779140    10.17790169     7.03256256     0.00010213     0.00020495    -0.00004124
H         8.94354208    11.12781744     7.06422467    -0.00011530     0.00013322     0.00026064
H         8.80939616     9.87563508     7.90773070    -0.00037630    -0.00013460    -0.00028897
     9
  Step:    24            Position(A)                                  Velocity(au)
C         6.78745815     7.56781555     7.51006069    -0.00030983     0.00018534    -0.00001955
N         8.06080192     7.27869187     7.50508061     0.00029809    -0.00040265    -0.00007979
H         6.28488159     7.92275512     6.57029506    -0.00183875    -0.00010332    -0.00013049
H         6.10825017     7.38453498     8.41547239    -0.00020635    -0.00025200     0.00054523
H         8.61855926     7.08424353     8.35361174    -0.00033774     0.00041844     0.00062920
H         8.64864854     7.68387507     6.74104223     0.00080518     0.00006477     0.00096957
O         9.05807116    10.17846308     7.03244983     0.00010248     0.00020562    -0.00004121
H         8.94322587    11.12818090     7.06493858    -0.00011598     0.00013274     0.00026145
H         8.80836449     9.87526671     7.90693617    -0.00037822    -0.00013483    -0.00029215
     9
  Step:    25            Position(A)                                  Velocity(au)
C         6.78658843     7.56832700     7.51001081    -0.00032593     0.00018866    -0.00001698
N         8.06163830     7.27758795     7.50486091     0.00031323    -0.00040466    -0.00008082
H         6.27981337     7.92246849     6.56993384    -0.00186701    -0.00010688    -0.00013254
H         6.10768082     7.38385619     8.41693144    -0.00020961    -0.00024435     0.00052130
H         8.61764017     7.08536496     8.35535126    -0.00033461     0.00040167     0.00064280
H         8.65085986     7.68403975     6.74369163     0.00081234     0.00005597     0.00096738
O         9.05835186    10.17902629     7.03233720     0.00010282     0.00020628    -0.00004116
H         8.94290779    11.12854341     7.06565463    -0.00011667     0.00013253     0.00026221
H         8.80732760     9.87489765     7.90613286    -0.00038012    -0.00013511    -0.00029539
     9
  Step:    26            Position(A)                                  Velocity(au)
C         6.78567554     7.56884737     7.50996783    -0.00034138     0.00019187    -0.00001450
N         8.06251502     7.27647870     7.50463858     0.00032758    -0.00040654    -0.00008171
H         6.27467050     7.92217056     6.56957017    -0.00189333    -0.00011158    -0.00013229
H         6.10710377     7.38319855     8.41832350    -0.00021202    -0.00023654     0.00049627
H         8.61672917     7.08644037     8.35712736    -0.00033184     0.00038478     0.00065592
H         8.65309144     7.68418118     6.74633303     0.00082002     0.00004777     0.00096371
O         9.05863352    10.17959126     7.03222471     0.00010317     0.00020691    -0.00004111
H         8.94258779    11.12890574     7.06637267    -0.00011738     0.00013260     0.00026291
H         8.80628554     9.87452779     7.90532064    -0.00038200    -0.00013542    -0.00029866
     9
  Step:    27            Position(A)                                  Velocity(au)
C         6.78472132     7.56937639     7.50993148    -0.00035615     0.00019497    -0.00001213
N         8.06342993     7.27536447     7.50441400     0.00034115    -0.00040830    -0.00008247
H         6.26945830     7.92185826     6.56921030    -0.00191770    -0.00011739    -0.00012977
H         6.10652126     7.38256250     8.41964568    -0.00021363    -0.00022858     0.00047024
H         8.61582526     7.08746942     8.35893863    -0.00032945     0.00036777     0.00066849
H         8.65534472     7.68430103     6.74896237     0.00082821     0.00004018     0.00095857
O         9.05891612    10.18015795     7.03211237     0.00010351     0.00020753    -0.00004105
H         8.94226584    11.12926865     7.06709255    -0.00011810     0.00013296     0.00026355
H         8.80523836     9.87415700     7.90449940    -0.00038387    -0.00013578    -0.00030198
     9
  Step:    28            Position(A)                                  Velocity(au)
C         6.78372766     7.56991372     7.50990149    -0.00037022     0.00019796    -0.00000986
N         8.06438085     7.27424563     7.50418755     0.00035391    -0.00040991    -0.00008308
H         6.26418213     7.92152852     6.56886043    -0.00194011    -0.00012432    -0.00012500
H         6.10593537     7.38194842     8.42089533    -0.00021451    -0.00022047     0.00044328
H         8.61492734     7.08845181     8.36078347    -0.00032748     0.00035066     0.00068044
H         8.65762112     7.68440096     6.75157565     0.00083693     0.00003321     0.00095197
O         9.05919965    10.18072631     7.03200020     0.00010385     0.00020814    -0.00004099
H         8.94194188    11.12963293     7.06781410    -0.00011884     0.00013360     0.00026414
H         8.80418609     9.87378516     7.90366905    -0.00038572    -0.00013619    -0.00030532
     9
  Step:    29            Position(A)                                  Velocity(au)
C         6.78269652     7.57045905     7.50987755    -0.00038355     0.00020081    -0.00000770
N         8.06536555     7.27312257     7.50395963     0.00036585    -0.00041138    -0.00008354
H         6.25884739     7.92117832     6.56852667    -0.00196054    -0.00013234    -0.00011801
H         6.10534803     7.38135668     8.42207008    -0.00021473    -0.00021224     0.00041549
H         8.61403422     7.08938727     8.36266010    -0.00032595     0.00033345     0.00069170
H         8.65992209     7.68448267     6.75416893     0.00084617     0.00002686     0.00094395
O         9.05948412    10.18129630     7.03188821     0.00010420     0.00020873    -0.00004091
H         8.94161587    11.12999932     7.06853718    -0.00011960     0.00013451     0.00026467
H         8.80312878     9.87341213     7.90282952    -0.00038755    -0.00013666    -0.00030869
     9
  Step:    30            Position(A)                                  Velocity(au)
C         6.78162993     7.57101202     7.50985936    -0.00039613     0.00020354    -0.00000566
N         8.06638178     7.27199567     7.50373065     0.00037697    -0.00041271    -0.00008385
H         6.25345947     7.92080469     6.56821501    -0.00197901    -0.00014144    -0.00010886
H         6.10476095     7.38078761     8.42316777    -0.00021435    -0.00020391     0.00038697
H         8.61314462     7.09027553     8.36456653    -0.00032491     0.00031615     0.00070221
H         8.66224904     7.68454784     6.75673833     0.00085593     0.00002111     0.00093453
O         9.05976952    10.18186788     7.03177643     0.00010454     0.00020930    -0.00004084
H         8.94128778    11.13036858     7.06926162    -0.00012037     0.00013569     0.00026514
H         8.80206647     9.87303775     7.90198075    -0.00038938    -0.00013717    -0.00031208
     9
  Step:    31            Position(A)                                  Velocity(au)
C         6.78052997     7.57157227     7.50984660    -0.00040795     0.00020614    -0.00000373
N         8.06742725     7.27086535     7.50350102     0.00038724    -0.00041389    -0.00008401
H         6.24802374     7.92040474     6.56793130    -0.00199551    -0.00015159    -0.00009760