|===============================================================================
|
|  DFTB+ release 20.1
|
|  Copyright (C) 2006 - 2020  DFTB+ developers group
|
|===============================================================================
|
|  When publishing results obtained with DFTB+, please cite the following
|  reference:
|
|  * DFTB+, a software package for efficient approximate density functional
|    theory based atomistic simulations, J. Chem. Phys. 152, 124101 (2020).
|    [doi: 10.1063/1.5143190]
|
|  You should also cite additional publications crediting the parametrization
|  data you use. Please consult the documentation of the SK-files for the
|  references.
|
|===============================================================================

Reading input file 'dftb_in.hsd'
Parser version: 8

--------------------------------------------------------------------------------
Reading SK-files:
Done.


Processed input in HSD format written to 'dftb_pin.hsd'

Starting initialization...
--------------------------------------------------------------------------------
OpenMP threads:              1
Chosen random seed:          567441639
Mode:                        Static calculation
Self consistent charges:     Yes
SCC-tolerance:                 0.100000E-05
Max. scc iterations:                  10000
Shell resolved Hubbard:      No
Spin polarisation:           No
Nr. of up electrons:            16.000000
Nr. of down electrons:          16.000000
Periodic boundaries:         No
Electronic solver:           Relatively robust
Maximal SCC-cycles:                   10000
Initial charges:             Set automatically (system chrg:   0.100E+01)
Included shells:             C:  s, p
                             H:  s
                             N:  s, p
Spin coupling constants:     C   1(s)-1(s):  -0.455900E-01
                             C   1(s)-2(p):  -0.293000E-01
                             C   2(p)-1(s):  -0.293000E-01
                             C   2(p)-2(p):  -0.275500E-01
                             H   1(s)-1(s):  -0.792500E-01
                             N   1(s)-1(s):  -0.468700E-01
                             N   1(s)-2(p):  -0.317000E-01
                             N   2(p)-1(s):  -0.317000E-01
                             N   2(p)-2(p):  -0.307200E-01
Range separated hybrid:      Yes
  Screening parameter omega:   0.300000E+00
  Range separated algorithm:   MatrixBased
Extra options:
                             Mulliken analysis
                             Force calculation
Force type                   original
                             Eigenvector printing
 
 
REKS Calcuation:             Yes
SSR(2,2) Calcuation:         Yes
Energy Functional:           (PPS+OSS)/2
Number of Core Orbitals:                 15
Number of Active Orbitals:                2
Number of Basis:                         32
Number of States:                         2
State-Averaging Weight:          0.500000
                                 0.500000
State of Interest:                        1
Initial Guess:               Diagonalize H0 matrix
Newton-Raphson for FON opt:  Yes
NR max. Iterations:                      50
Level Shifting:              Yes
Shift Value:                     0.300000
W Scale Factor:              C  =    3.200000
                             H  =    3.200000
                             N  =    3.200000
Transition Dipole:           No
Gradient of Microstate:      No
CP-REKS Solver:              Preconditioned Conjugate-Gradient
CG max. Iterations:                     100
CG Tolerance:                  0.100000E-07
Memory for A and Hxc:        Save in Cache Memory
Non-Adiabatic Coupling:      Yes

--------------------------------------------------------------------------------

***  Geometry step: 0

  iSCC       reks energy        Diff energy         x_a       SCC error   
    1      -16.3532222711       0.0000000000     0.999603    1.21653324
    2      -16.3681363106      -0.0149140395     0.999969    0.05557710
    3      -16.3714468614      -0.0033105508     0.999993    0.02003651
    4      -16.3728206317      -0.0013737703     0.999998    0.01068184
    5      -16.3735888745      -0.0007682428     0.999999    0.00793669
    6      -16.3741039608      -0.0005150863     0.999999    0.00639105
    7      -16.3744962698      -0.0003923090     1.000000    0.00533033
    8      -16.3748219716      -0.0003257018     1.000000    0.00454061
    9      -16.3751070438      -0.0002850722     1.000000    0.00392221
   10      -16.3753639497      -0.0002569059     1.000000    0.00342114
   11      -16.3755988314      -0.0002348817     1.000000    0.00300486
   12      -16.3758148189      -0.0002159875     1.000000    0.00265227
   13      -16.3760136069      -0.0001987880     1.000000    0.00235671
   14      -16.3761962245      -0.0001826177     1.000000    0.00235191
   15      -16.3763634179      -0.0001671934     1.000000    0.00232647
   16      -16.3765158406      -0.0001524227     1.000000    0.00228336
   17      -16.3766541465      -0.0001383059     1.000000    0.00222543
   18      -16.3767790306      -0.0001248841     1.000000    0.00215540
   19      -16.3768912409      -0.0001122102     1.000000    0.00207578
   20      -16.3769915749      -0.0001003340     1.000000    0.00198887
   21      -16.3770808681      -0.0000892932     1.000000    0.00189678
   22      -16.3771599776      -0.0000791095     1.000000    0.00180137
   23      -16.3772297656      -0.0000697881     1.000000    0.00170426
   24      -16.3772910837      -0.0000613180     1.000000    0.00160686
   25      -16.3773447580      -0.0000536744     1.000000    0.00151034
   26      -16.3773915787      -0.0000468206     1.000000    0.00141567
   27      -16.3774322903      -0.0000407116     1.000000    0.00132363
   28      -16.3774675864      -0.0000352962     1.000000    0.00123481
   29      -16.3774981058      -0.0000305194     1.000000    0.00114967
   30      -16.3775244310      -0.0000263252     1.000000    0.00106852
   31      -16.3775470887      -0.0000226576     1.000000    0.00099154
   32      -16.3775665511      -0.0000194624     1.000000    0.00091884
   33      -16.3775832393      -0.0000166882     1.000000    0.00085044
   34      -16.3775975258      -0.0000142865     1.000000    0.00078630
   35      -16.3776097388      -0.0000122130     1.000000    0.00072632
   36      -16.3776201659      -0.0000104272     1.000000    0.00067036
   37      -16.3776290582      -0.0000088923     1.000000    0.00061829
   38      -16.3776366339      -0.0000075757     1.000000    0.00056990
   39      -16.3776430820      -0.0000064481     1.000000    0.00052503
   40      -16.3776485661      -0.0000054840     1.000000    0.00048347
   41      -16.3776532268      -0.0000046607     1.000000    0.00044502
   42      -16.3776571853      -0.0000039585     1.000000    0.00040949
   43      -16.3776605455      -0.0000033602     1.000000    0.00037669
   44      -16.3776633964      -0.0000028509     1.000000    0.00034643
   45      -16.3776658141      -0.0000024177     1.000000    0.00031854
   46      -16.3776678636      -0.0000020495     1.000000    0.00029284
   47      -16.3776696004      -0.0000017368     1.000000    0.00026917
   48      -16.3776710718      -0.0000014713     1.000000    0.00024745
   49      -16.3776723179      -0.0000012461     1.000000    0.00022793
   50      -16.3776733729      -0.0000010551     1.000000    0.00020992
   51      -16.3776742661      -0.0000008931     1.000000    0.00019331
   52      -16.3776750220      -0.0000007559     1.000000    0.00017798
   53      -16.3776756617      -0.0000006397     1.000000    0.00016385
   54      -16.3776762029      -0.0000005412     1.000000    0.00015082
   55      -16.3776766607      -0.0000004578     1.000000    0.00013882
   56      -16.3776770480      -0.0000003873     1.000000    0.00012776
   57      -16.3776773755      -0.0000003275     1.000000    0.00011757
   58      -16.3776776525      -0.0000002770     1.000000    0.00010818
   59      -16.3776778867      -0.0000002342     1.000000    0.00009954
   60      -16.3776780847      -0.0000001980     1.000000    0.00009158
   61      -16.3776782522      -0.0000001674     1.000000    0.00008425
   62      -16.3776783937      -0.0000001416     1.000000    0.00007751
   63      -16.3776785134      -0.0000001197     1.000000    0.00007130
   64      -16.3776786145      -0.0000001012     1.000000    0.00006559
   65      -16.3776787001      -0.0000000855     1.000000    0.00006033
   66      -16.3776787723      -0.0000000723     1.000000    0.00005549
   67      -16.3776788334      -0.0000000611     1.000000    0.00005103
   68      -16.3776788851      -0.0000000516     1.000000    0.00004694
   69      -16.3776789287      -0.0000000436     1.000000    0.00004317
   70      -16.3776789656      -0.0000000369     1.000000    0.00003970
   71      -16.3776789968      -0.0000000312     1.000000    0.00003651
   72      -16.3776790231      -0.0000000263     1.000000    0.00003357
   73      -16.3776790454      -0.0000000223     1.000000    0.00003087
   74      -16.3776790642      -0.0000000188     1.000000    0.00002839
   75      -16.3776790801      -0.0000000159     1.000000    0.00002611
   76      -16.3776790935      -0.0000000134     1.000000    0.00002401
   77      -16.3776791049      -0.0000000114     1.000000    0.00002207
   78      -16.3776791145      -0.0000000096     1.000000    0.00002030
   79      -16.3776791226      -0.0000000081     1.000000    0.00001866
   80      -16.3776791294      -0.0000000069     1.000000    0.00001716
   81      -16.3776791352      -0.0000000058     1.000000    0.00001578
   82      -16.3776791401      -0.0000000049     1.000000    0.00001451
   83      -16.3776791442      -0.0000000041     1.000000    0.00001334
   84      -16.3776791477      -0.0000000035     1.000000    0.00001226
   85      -16.3776791507      -0.0000000030     1.000000    0.00001128
   86      -16.3776791532      -0.0000000025     1.000000    0.00001037
   87      -16.3776791553      -0.0000000021     1.000000    0.00000953
   88      -16.3776791571      -0.0000000018     1.000000    0.00000876
   89      -16.3776791586      -0.0000000015     1.000000    0.00000806
   90      -16.3776791598      -0.0000000013     1.000000    0.00000741
   91      -16.3776791609      -0.0000000011     1.000000    0.00000681
   92      -16.3776791618      -0.0000000009     1.000000    0.00000626
   93      -16.3776791626      -0.0000000008     1.000000    0.00000576
   94      -16.3776791632      -0.0000000006     1.000000    0.00000529
   95      -16.3776791638      -0.0000000005     1.000000    0.00000486
   96      -16.3776791643      -0.0000000005     1.000000    0.00000447
   97      -16.3776791646      -0.0000000004     1.000000    0.00000411
   98      -16.3776791650      -0.0000000003     1.000000    0.00000378
   99      -16.3776791653      -0.0000000003     1.000000    0.00000347
  100      -16.3776791655      -0.0000000002     1.000000    0.00000319
  101      -16.3776791657      -0.0000000002     1.000000    0.00000294
  102      -16.3776791659      -0.0000000002     1.000000    0.00000270
  103      -16.3776791660      -0.0000000001     1.000000    0.00000248
  104      -16.3776791661      -0.0000000001     1.000000    0.00000228
  105      -16.3776791662      -0.0000000001     1.000000    0.00000210
  106      -16.3776791663      -0.0000000001     1.000000    0.00000193
  107      -16.3776791664      -0.0000000001     1.000000    0.00000177
  108      -16.3776791664      -0.0000000001     1.000000    0.00000163
  109      -16.3776791665      -0.0000000001     1.000000    0.00000150
  110      -16.3776791665      -0.0000000000     1.000000    0.00000138
  111      -16.3776791666      -0.0000000000     1.000000    0.00000127
  112      -16.3776791666      -0.0000000000     1.000000    0.00000116
  113      -16.3776791666      -0.0000000000     1.000000    0.00000107
  114      -16.3776791667      -0.0000000000     1.000000    0.00000098
  
--------------------------------------------------
 Final SA-REKS(2,2) energy:     -16.37767917
  
 State     Energy      FON(1)    FON(2)   Spin
  PPS  -16.43553351   2.000000  0.000000  0.00
  OSS  -16.31982483   1.000000  1.000000  0.00
 Trip  -16.33279005   1.000000  1.000000  1.00
--------------------------------------------------
 
 Lagrangian Wab:  -0.00423445 -0.00423451
 
--------------------------------------------------
 SSR: 2SI-2SA-REKS(2,2) Hamiltonian matrix
               PPS           OSS
   PPS   -16.43553351   -0.00598829
   OSS    -0.00598829  -16.31982483
--------------------------------------------------
 
----------------------------------------------------------------
 SSR: 2SI-2SA-REKS(2,2) states
                    E_n       C_{PPS}    C_{OSS}
 SSR state  1  -16.43584259  -0.998671  -0.051547
 SSR state  2  -16.31951574   0.051547  -0.998671
----------------------------------------------------------------
 
 unrelaxed SSR FONs for S0:  1.997343  0.002657
 
Total Energy:                      -16.4358425930 H         -447.2420 eV
Extrapolated to 0:                 -16.4358425930 H         -447.2420 eV

----------------------------------------------------------------------------------
 Solving CP-REKS equation for  1 state vector...
----------------------------------------------------------------------------------
  CG solver: Constructing Y initial guess
  CG solver: Iteration    1    eps =    0.000458271235
  CG solver: Iteration    2    eps =    0.000034675922
  CG solver: Iteration    3    eps =    0.000019650904
  CG solver: Iteration    4    eps =    0.000001686188
  CG solver: Iteration    5    eps =    0.000000861582
  CG solver: Iteration    6    eps =    0.000000136427
  CG solver: Iteration    7    eps =    0.000000011155
  CG solver: Iteration    8    eps =    0.000000001085
  Convergence reached in CG solver after    8 iterations
  CG solver: Calculating converged R, Z, Q2 matrix
----------------------------------------------------------------------------------

----------------------------------------------------------------------------------
 Solving CP-REKS equation for SI between  1 and  2 state vectors...
----------------------------------------------------------------------------------
  CG solver: Constructing Y initial guess
  CG solver: Iteration    1    eps =    0.002907976547
  CG solver: Iteration    2    eps =    0.000658661812
  CG solver: Iteration    3    eps =    0.000038714075
  CG solver: Iteration    4    eps =    0.000077393074
  CG solver: Iteration    5    eps =    0.000006894481
  CG solver: Iteration    6    eps =    0.000000548815
  CG solver: Iteration    7    eps =    0.000000189956
  CG solver: Iteration    8    eps =    0.000000102339
  CG solver: Iteration    9    eps =    0.000000036347
  CG solver: Iteration   10    eps =    0.000000008541
  Convergence reached in CG solver after   10 iterations
  CG solver: Calculating converged R, Z, Q2 matrix
----------------------------------------------------------------------------------
 
--------------------------------------------------
 Gradient Information
--------------------------------------------------
 1 st state (SSR)
    -0.13927795     0.01572161    -0.04317635
     0.12560320     0.05793162     0.03014139
     0.03766037    -0.07121454    -0.03320931
     0.03384880     0.06441184     0.06374239
     0.00676975    -0.04501026    -0.00198213
    -0.07091460     0.01299409     0.01127855
     0.04609393    -0.02743604    -0.05224691
    -0.00653216    -0.01353092     0.01248415
     0.00500497     0.01828423     0.04181733
    -0.02086911    -0.02443725    -0.15368539
     0.02787876     0.04089975     0.09776878
    -0.09678427    -0.02686897     0.03218075
     0.02436698     0.01313765    -0.00175348
     0.02715132    -0.01488280    -0.00335977

 2 st state (SSR)
    -0.07779660    -0.00250675    -0.00663757
     0.04369219     0.05139470    -0.01132197
     0.03871210    -0.07345207    -0.03166091
     0.03956919     0.07239609     0.05394377
     0.00506959    -0.04040692     0.00302054
    -0.02610814     0.02545230     0.00030180
     0.00874824    -0.02839327    -0.02153517
    -0.00847147    -0.00726983     0.01211780
     0.00954024     0.01826278     0.04161554
     0.05642636    -0.01326435    -0.13029068
     0.02414372     0.05234538     0.08771781
    -0.16870800    -0.06013212     0.00498147
     0.02889211     0.01064974    -0.00305962
     0.02629046    -0.00507568     0.00080720
--------------------------------------------------
 Coupling Information
--------------------------------------------------
 between  1 and  2 states
--------------------------------------------------
 g vector - difference gradient
    -0.03189552     0.00886477    -0.01845161
     0.04193070     0.00341999     0.02231580
    -0.00055302     0.00103481    -0.00064085
    -0.00286863    -0.00384198     0.00467335
     0.00114712    -0.00213155    -0.00282237
    -0.02270006    -0.00634296     0.00428202
     0.01932277     0.00045268    -0.01511828
     0.00070643    -0.00295320     0.00005661
    -0.00216871    -0.00013372     0.00003075
    -0.03909002    -0.00565335    -0.01157570
     0.00181944    -0.00577463     0.00503275
     0.03619531     0.01671644     0.01368944
    -0.00229552     0.00129499     0.00065639
     0.00044970    -0.00495228    -0.00212830

 h vector - derivative coupling
     0.00957056     0.00288006     0.00081752
    -0.00730769    -0.00129526    -0.01423443
     0.00023520     0.00086889    -0.00132829
    -0.00006616    -0.00165665     0.00243590
    -0.00282592    -0.00176238     0.00297246
     0.00171138     0.00077848     0.01193812
    -0.00531530     0.00027531    -0.00308802
     0.00259314    -0.00187496     0.00123226
    -0.00107278     0.00139603     0.00068292
     0.00227827     0.00035796    -0.00177911
     0.00056088     0.00020525     0.00018918
    -0.00039913     0.00003855    -0.00016565
     0.00020156    -0.00042892     0.00000168
    -0.00016402     0.00021763     0.00032546

 G vector - GDV
    -0.03074067     0.00911418    -0.01826939
     0.04095551     0.00326846     0.02073168
    -0.00052587     0.00111876    -0.00077420
    -0.00286020    -0.00399212     0.00489931
     0.00085008    -0.00230167    -0.00250133
    -0.02240323    -0.00622911     0.00548837
     0.01867285     0.00047861    -0.01535587
     0.00096965    -0.00313055     0.00018318
    -0.00226763     0.00001072     0.00010090
    -0.03864773    -0.00558645    -0.01169736
     0.00186752    -0.00572282     0.00502548
     0.03596187     0.01663158     0.01359964
    -0.00226257     0.00124395     0.00065307
     0.00043043    -0.00490356    -0.00208349

 H vector - DCV - non-adiabatic coupling
     0.11006526     0.01678092     0.02332124
    -0.09959769    -0.01410235    -0.14146640
     0.00250059     0.00651383    -0.01079074
     0.00197319    -0.01076527     0.01669269
    -0.02517908    -0.01318319     0.02791486
     0.03472458     0.01227051     0.09829047
    -0.06255181     0.00195346    -0.01302443
     0.02154819    -0.01341860     0.01048671
    -0.00725368     0.01205551     0.00581224
     0.05407803     0.00806441    -0.00496757
     0.00318567     0.00686595    -0.00283668
    -0.03544794    -0.01446540    -0.01353243
     0.00375518    -0.00481379    -0.00056655
    -0.00180049     0.00624401     0.00466659
--------------------------------------------------
 
 
--------------------------------------------------------------------------------
DFTB+ running times                          cpu [s]             wall clock [s]
--------------------------------------------------------------------------------
SCC                                    +     0.16  ( 69.9%)      0.17  ( 70.9%)
  Diagonalisation                            0.01  (  2.8%)      0.02  (  7.0%)
      Dense to sparse                        0.03  ( 11.8%)      0.03  ( 11.1%)
      Range separated Hamiltonian            0.02  (  7.1%)      0.02  (  7.0%)
  Density matrix creation                    0.02  (  8.0%)      0.02  (  7.7%)
Post-SCC processing                    +     0.06  ( 27.2%)      0.06  ( 25.9%)
  Force calculation                          0.06  ( 27.0%)      0.06  ( 25.7%)
--------------------------------------------------------------------------------
Missing                                +     0.01  (  2.9%)      0.01  (  3.2%)
Total                                  =     0.22  (100.0%)      0.23  (100.0%)
--------------------------------------------------------------------------------
