     6
  Step:     0            Position(A)                                  Velocity(au)
C        -0.69284974     0.00000000     0.00000000     0.00000000     0.00000000     0.00000000
C         0.66284974     0.00000000     0.00000000     0.00000000     0.00000000     0.00000000
H        -1.03381877     0.72280451    -0.32280655     0.00000000     0.00000000     0.00000000
H        -1.23381879    -0.72280451    -0.34280655     0.00000000     0.00000000     0.00000000
H         1.03381877     0.75280451    -0.32280655     0.00000000     0.00000000     0.00000000
H         1.03381877    -0.72280451    -0.31280655     0.00000000     0.00000000     0.00000000
     6
  Step:     1            Position(A)                                  Velocity(au)
C        -0.69277296    -0.00004333     0.00002346     0.00005594    -0.00003143     0.00001700
C         0.66275704     0.00000550     0.00003469    -0.00006755     0.00000393     0.00002519
H        -1.03438991     0.72384257    -0.32306883    -0.00041603     0.00075548    -0.00019020
H        -1.23405884    -0.72321610    -0.34282557    -0.00017504    -0.00030031    -0.00001366
H         1.03423689     0.75355707    -0.32298834     0.00030473     0.00054824    -0.00013212
H         1.03440162    -0.72373278    -0.31303638     0.00042469    -0.00067570    -0.00016675
     6
  Step:     2            Position(A)                                  Velocity(au)
C        -0.69254381    -0.00017190     0.00009299     0.00011102    -0.00006184     0.00003339
C         0.66248030     0.00002149     0.00013775    -0.00013410     0.00000749     0.00004965
H        -1.03609411     0.72693638    -0.32384679    -0.00082542     0.00149627    -0.00037402
H        -1.23477611    -0.72444697    -0.34288127    -0.00034798    -0.00059779    -0.00002634
H         1.03548541     0.75580297    -0.32352914     0.00060522     0.00108795    -0.00026094
H         1.03614151    -0.72650009    -0.31371853     0.00084314    -0.00133879    -0.00032822
     6
  Step:     3            Position(A)                                  Velocity(au)
C        -0.69216575    -0.00038154     0.00020607     0.00016444    -0.00009028     0.00004858
C         0.66202362     0.00004646     0.00030625    -0.00019869     0.00001034     0.00007272
H        -1.03890429     0.73202603    -0.32511443    -0.00122191     0.00220858    -0.00054550
H        -1.23596203    -0.72648556    -0.34296964    -0.00051679    -0.00088969    -0.00003710
H         1.03754699     0.75950733    -0.32441548     0.00089740     0.00161098    -0.00038333
H         1.03901296    -0.73105491    -0.31483147     0.00124943    -0.00197732    -0.00047944
     6
  Step:     4            Position(A)                                  Velocity(au)
C        -0.69164443    -0.00066564     0.00035867     0.00021545    -0.00011591     0.00006206
C         0.66139360     0.00007803     0.00053546    -0.00026046     0.00001218     0.00009378
H        -1.04277703     0.73901560    -0.32683025    -0.00159997     0.00288021    -0.00069944
H        -1.23760253    -0.72931289    -0.34308416    -0.00067948    -0.00117338    -0.00004505
H         1.04039349     0.76461379    -0.32562566     0.00117750     0.00210990    -0.00049649
H         1.04297495    -0.73731449    -0.31634070     0.00163825    -0.00258067    -0.00061603
     6
  Step:     5            Position(A)                                  Velocity(au)
C        -0.69098739    -0.00101549     0.00054550     0.00026340    -0.00013808     0.00007343
C         0.66059912     0.00011308     0.00081914    -0.00031862     0.00001278     0.00011233
H        -1.04765492     0.74777855    -0.32893981    -0.00195502     0.00350116    -0.00083165
H        -1.23967827    -0.73290306    -0.34321604    -0.00083421    -0.00144644    -0.00004944
H         1.04398698     0.77104686    -0.32713087     0.00144217     0.00257829    -0.00059806
H         1.04797290    -0.74516919    -0.31820069     0.00200509    -0.00314000    -0.00073437
     6
  Step:     6            Position(A)                                  Velocity(au)
C        -0.69020383    -0.00142081     0.00076028     0.00030775    -0.00015629     0.00008237
C         0.65965098     0.00014794     0.00114981    -0.00037255     0.00001198     0.00012799
H        -1.05346949     0.75816425    -0.33137872    -0.00228359     0.00406393    -0.00093910
H        -1.24216504    -0.73722382    -0.34335455    -0.00097928    -0.00170669    -0.00004962
H         1.04828105     0.77871502    -0.32889656     0.00168859     0.00301090    -0.00068623
H         1.05394125    -0.75448785    -0.32035717     0.00234644    -0.00364848    -0.00083175
     6
  Step:     7            Position(A)                                  Velocity(au)
C        -0.68930425    -0.00187028     0.00099601     0.00034806    -0.00017026     0.00008869
C         0.65856157     0.00017858     0.00151915    -0.00042172     0.00000966     0.00014051
H        -1.06014438     0.77000510    -0.33407595    -0.00258336     0.00456356    -0.00101990
H        -1.24503416    -0.74223732    -0.34348743    -0.00111312    -0.00195222    -0.00004513
H         1.05322226     0.78751418    -0.33088400     0.00191446     0.00340382    -0.00075977
H         1.06080614    -0.76512358    -0.32274969     0.00265981    -0.00410144    -0.00090632
     6
  Step:     8            Position(A)                                  Velocity(au)
C        -0.68830021    -0.00235198     0.00124533     0.00038401    -0.00017983     0.00009228
C         0.65734447     0.00020076     0.00191829    -0.00046577     0.00000577     0.00014975
H        -1.06759850     0.78312341    -0.33695678    -0.00285316     0.00499752    -0.00107319
H        -1.24825292    -0.74790097    -0.34360137    -0.00123434    -0.00218149    -0.00003567
H         1.05875167     0.79733128    -0.33305192     0.00211803     0.00375439    -0.00081806
H         1.06848834    -0.77691956    -0.32531406     0.00294369    -0.00449622    -0.00095713
     6
  Step:     9            Position(A)                                  Velocity(au)
C        -0.68720399    -0.00285384     0.00150073     0.00041537    -0.00018502     0.00009315
C         0.65601416     0.00021013     0.00233814    -0.00050442     0.00000029     0.00015568
H        -1.07574897     0.79733767    -0.33994549    -0.00309280     0.00536535    -0.00109898
H        -1.25178503    -0.75416838    -0.34368251    -0.00134169    -0.00239327    -0.00002117
H         1.06480626     0.80804780    -0.33535814     0.00229803     0.00406122    -0.00086104
H         1.07690587    -0.78971444    -0.32798444     0.00319755    -0.00483200    -0.00098388
     6
  Step:    10            Position(A)                                  Velocity(au)
C        -0.68602843    -0.00336390     0.00175481     0.00044197    -0.00018589     0.00009136
C         0.65458567     0.00020233     0.00276971    -0.00053749    -0.00000680     0.00015836
H        -1.08451371     0.81246775    -0.34296735    -0.00330296     0.00566831    -0.00109785
H        -1.25559092    -0.76099030    -0.34371713    -0.00143402    -0.00258672    -0.00000179
H         1.07132014     0.81954303    -0.33776113     0.00245358     0.00432404    -0.00088922
H         1.08597648    -0.80334686    -0.33069511     0.00342167    -0.00510945    -0.00098682
     6
  Step:    11            Position(A)                                  Velocity(au)
C        -0.68478677    -0.00387052     0.00200040     0.00046365    -0.00018255     0.00008701
C         0.65307449     0.00017291     0.00320425    -0.00056484    -0.00001555     0.00015794
H        -1.09381362     0.82833893    -0.34594986    -0.00348507     0.00590884    -0.00107067
H        -1.25962801    -0.76831574    -0.34369229    -0.00151019    -0.00276140     0.00002201
H         1.07822546     0.83169696    -0.34022150     0.00258404     0.00454352    -0.00090366
H         1.09561976    -0.81765918    -0.33338161     0.00361705    -0.00533040    -0.00096650
     6
  Step:    12            Position(A)                                  Velocity(au)
C        -0.68349265    -0.00436229     0.00223070     0.00048022    -0.00017503     0.00008025
C         0.65149644     0.00011726     0.00363349    -0.00058630    -0.00002609     0.00015458
H        -1.10357436     0.84478454    -0.34882310    -0.00364116     0.00609014    -0.00101825
H        -1.26385052    -0.77609303    -0.34359677    -0.00156892    -0.00291731     0.00004937
H         1.08545282     0.84439260    -0.34270345     0.00268876     0.00472114    -0.00090594
H         1.10575898    -0.83250003    -0.33598110     0.00378534    -0.00549743    -0.00092341
     6
  Step:    13            Position(A)                                  Velocity(au)
C        -0.68216034    -0.00482781     0.00243930     0.00049134    -0.00016322     0.00007120
C         0.64986790     0.00003025     0.00404968    -0.00060155    -0.00003870     0.00014849
H        -1.11372793     0.86164729    -0.35151888    -0.00377381     0.00621554    -0.00094070
H        -1.26820877    -0.78427116    -0.34342227    -0.00160837    -0.00305500     0.00007886
H         1.09293091     0.85751798    -0.34517632     0.00276672     0.00485900    -0.00089836
H         1.11632267    -0.84772588    -0.33843194     0.00392878    -0.00561344    -0.00085761
     6
  Step:    14            Position(A)                                  Velocity(au)
C        -0.68080541    -0.00525499     0.00262012     0.00049616    -0.00014653     0.00005994
C         0.64820642    -0.00009439     0.00444559    -0.00060982    -0.00005407     0.00013983
H        -1.12421420     0.87877876    -0.35396800    -0.00388630     0.00628765    -0.00083628
H        -1.27264705    -0.79280150    -0.34316548    -0.00162525    -0.00317591     0.00010789
H         1.10058465     0.87096760    -0.34761679     0.00281550     0.00495966    -0.00088434
H         1.12724637    -0.86320121    -0.34067155     0.00405036    -0.00568100    -0.00076769
     6
  Step:    15            Position(A)                                  Velocity(au)
C        -0.67944671    -0.00562922     0.00276711     0.00049211    -0.00012294     0.00004628
C         0.64653268    -0.00026549     0.00481443    -0.00060862    -0.00007405     0.00012862
H        -1.13498301     0.89603588    -0.35609271    -0.00398314     0.00630576    -0.00069720
H        -1.27709762    -0.80164094    -0.34283222    -0.00161107    -0.00328372     0.00013084
H         1.10832953     0.88464352    -0.35001299     0.00282793     0.00502605    -0.00087027
H         1.13847502    -0.87879658    -0.34263063     0.00415465    -0.00570067    -0.00064755
     6
  Step:    16            Position(A)                                  Velocity(au)
C        -0.67811394    -0.00592739     0.00287324     0.00045673    -0.00007628     0.00002720
C         0.64487771    -0.00049941     0.00514907    -0.00057662    -0.00011192     0.00011297
H        -1.14599889     0.91326639    -0.35778116    -0.00407590     0.00623306    -0.00045459
H        -1.28145836    -0.81076090    -0.34244989    -0.00150087    -0.00340245     0.00011625
H         1.11605127     0.89845621    -0.35237652     0.00274724     0.00506143    -0.00088830
H         1.14996911    -0.89437948    -0.34421317     0.00425813    -0.00564941    -0.00044366
     6
  Step:    17            Position(A)                                  Velocity(au)
C        -0.67694873    -0.00604642     0.00291588     0.00042293    -0.00003957     0.00000824
C         0.64337900    -0.00087761     0.00543231    -0.00054658    -0.00013946     0.00009650
H        -1.15727503     0.93012591    -0.35857899    -0.00411537     0.00614855    -0.00024507
H        -1.28530624    -0.82024973    -0.34219641    -0.00140383    -0.00349178     0.00013439
H         1.12335482     0.91232563    -0.35487133     0.00267950     0.00506399    -0.00086950
H         1.16176367    -0.90969448    -0.34505714     0.00431311    -0.00558738    -0.00026787
     6
  Step:    18            Position(A)                                  Velocity(au)
C        -0.67580085    -0.00614381     0.00291832     0.00041554    -0.00003117    -0.00000687
C         0.64188836    -0.00126216     0.00567683    -0.00054233    -0.00014193     0.00008175
H        -1.16850677     0.94689422    -0.35912153    -0.00409309     0.00610112    -0.00014762
H        -1.28913624    -0.82985822    -0.34171490    -0.00139194    -0.00352649     0.00021871
H         1.13070609     0.92615230    -0.35713201     0.00268995     0.00503545    -0.00078134
H         1.17355848    -0.92493812    -0.34567822     0.00430588    -0.00554741    -0.00018192
     6
  Step:    19            Position(A)                                  Velocity(au)
C        -0.67467604    -0.00621690     0.00287828     0.00040595    -0.00002198    -0.00002276
C         0.64041288    -0.00165385     0.00587939    -0.00053541    -0.00014456     0.00006589
H        -1.17966105     0.96349434    -0.35938636    -0.00405876     0.00602712    -0.00004314
H        -1.29291907    -0.83953691    -0.34100026    -0.00136970    -0.00354349     0.00030532
H         1.13806676     0.93986565    -0.35914465     0.00268703     0.00498220    -0.00068787
H         1.18531353    -0.94003453    -0.34605211     0.00428406    -0.00548126    -0.00008815
     6
  Step:    20            Position(A)                                  Velocity(au)
C        -0.67358061    -0.00626403     0.00279381     0.00008018    -0.00000251    -0.00000800
C         0.63896008    -0.00205281     0.00603717    -0.00010697    -0.00002994     0.00000998
H        -1.19070508     0.97985789    -0.35935746    -0.00081643     0.00120638     0.00001351
H        -1.29662742    -0.84923838    -0.34004503    -0.00027219    -0.00072095     0.00008030
H         1.14540206     0.95340111    -0.36089413     0.00054363     0.00099823    -0.00011985
H         1.19698898    -0.95491638    -0.34616031     0.00086429    -0.00109700     0.00000236
     6
  Step:    21            Position(A)                                  Velocity(au)
C        -0.67337909    -0.00625744     0.00274893     0.00006700     0.00000735    -0.00002487
C         0.63868250    -0.00213821     0.00604089    -0.00009580    -0.00003250    -0.00000733
H        -1.19286743     0.98300845    -0.35916783    -0.00076402     0.00109585     0.00012548
H        -1.29732194    -0.85119876    -0.33970141    -0.00023491    -0.00071123     0.00017125
H         1.14686032     0.95601278    -0.36108335     0.00052184     0.00090991    -0.00001810
H         1.19929400    -0.95777924    -0.34601386     0.00082025    -0.00099485     0.00010516
     6
  Step:    22            Position(A)                                  Velocity(au)
C        -0.67321417    -0.00622384     0.00265778     0.00005343     0.00001723    -0.00004182
C         0.63843614    -0.00223055     0.00599705    -0.00008416    -0.00003502    -0.00002478
H        -1.19488369     0.98585134    -0.35867119    -0.00070971     0.00098161     0.00023793
H        -1.29791219    -0.85312827    -0.33910842    -0.00019602    -0.00069848     0.00026261
H         1.14825612     0.95837760    -0.36099314     0.00049806     0.00081792     0.00008442
H         1.20147513    -0.96035742    -0.34558519     0.00077381    -0.00088904     0.00020866
     6
  Step:    23            Position(A)                                  Velocity(au)
C        -0.67308684    -0.00616321     0.00252019     0.00003954     0.00002711    -0.00005882
C         0.63822220    -0.00232975     0.00590537    -0.00007213    -0.00003751    -0.00004231
H        -1.19674902     0.98837710    -0.35786651    -0.00065377     0.00086415     0.00035065
H        -1.29839404    -0.85501889    -0.33826513    -0.00015573    -0.00068290     0.00035424
H         1.14958435     0.96048615    -0.36062166     0.00047252     0.00072271     0.00018751
H         1.20352615    -0.96264158    -0.34487266     0.00072521    -0.00078003     0.00031266
     6
  Step:    24            Position(A)                                  Velocity(au)
C        -0.67299790    -0.00607557     0.00233609     0.00002539     0.00003697    -0.00007583
C         0.63804168    -0.00243570     0.00576564    -0.00005975    -0.00003996    -0.00005990
H        -1.19845928     0.99057756    -0.35675338    -0.00059642     0.00074393     0.00046342
H        -1.29876392    -0.85686322    -0.33717102    -0.00011423    -0.00066474     0.00044599
H         1.15084046     0.96233024    -0.35996760     0.00044543     0.00062472     0.00029099
H         1.20544147    -0.96462361    -0.34387517     0.00067469    -0.00066830     0.00041696
     6
  Step:    25            Position(A)                                  Velocity(au)
C        -0.67294799    -0.00596100     0.00210548     0.00001102     0.00004680    -0.00009282
C         0.63789542    -0.00254830     0.00557775    -0.00004710    -0.00004237    -0.00007752
H        -1.20001098     0.99244580    -0.35533197    -0.00053792     0.00062140     0.00057602
H        -1.29901880    -0.85865449    -0.33582593    -0.00007172    -0.00064422     0.00053772
H         1.15202050     0.96390288    -0.35903016     0.00041700     0.00052438     0.00039467
H         1.20721620    -0.96629665    -0.34259219     0.00062251    -0.00055427     0.00052137
     6
  Step:    26            Position(A)                                  Velocity(au)
C        -0.67293762    -0.00581963     0.00182844    -0.00000349     0.00005656    -0.00010977
C         0.63778410    -0.00266744     0.00534167    -0.00003422    -0.00004474    -0.00009513
H        -1.20140129     0.99397614    -0.35360301    -0.00047850     0.00049702     0.00068825
H        -1.29915619    -0.86038658    -0.33423011    -0.00002841    -0.00062157     0.00062930
H         1.15312112     0.96519821    -0.35780908     0.00038744     0.00042212     0.00049834
H         1.20884611    -0.96765506    -0.34102368     0.00056889    -0.00043840     0.00062569
     6
  Step:    27            Position(A)                                  Velocity(au)
C        -0.67296710    -0.00565165     0.00150514    -0.00001810     0.00006625    -0.00012664
C         0.63770825    -0.00279301     0.00505746    -0.00002119    -0.00004707    -0.00011270
H        -1.20262799     0.99516409    -0.35156778    -0.00041839     0.00037121     0.00079991
H        -1.29917416    -0.86205400    -0.33238417     0.00001552    -0.00059704     0.00072057
H         1.15413949     0.96621156    -0.35630460     0.00035695     0.00031836     0.00060184
H         1.21032761    -0.96869437    -0.33917016     0.00051408    -0.00032111     0.00072973
     6
  Step:    28            Position(A)                                  Velocity(au)
C        -0.67303660    -0.00545729     0.00113582    -0.00003273     0.00007585    -0.00014341
C         0.63766821    -0.00292487     0.00472526    -0.00000806    -0.00004935    -0.00013021
H        -1.20368955     0.99600635    -0.34922811    -0.00035783     0.00024441     0.00091082
H        -1.29907132    -0.86365194    -0.33028915     0.00005985    -0.00057087     0.00081140
H         1.15507338     0.96693940    -0.35451747     0.00032575     0.00021352     0.00070497
H         1.21165775    -0.96941127    -0.33703260     0.00045832    -0.00020282     0.00083333
     6
  Step:    29            Position(A)                                  Velocity(au)
C        -0.67314612    -0.00523682     0.00072079    -0.00004734     0.00008534    -0.00016005
C         0.63766416    -0.00306291     0.00434530     0.00000511    -0.00005159    -0.00014762
H        -1.20458504     0.99650080    -0.34658632    -0.00029705     0.00011704     0.00102077
H        -1.29884684    -0.86517624    -0.32794645     0.00010438    -0.00054330     0.00090164
H         1.15592110     0.96737934    -0.35244894     0.00029404     0.00010801     0.00080756
H         1.21283425    -0.96980361    -0.33461250     0.00040183    -0.00008395     0.00093629
     6
  Step:    30            Position(A)                                  Velocity(au)
C        -0.67329550    -0.00499055     0.00026045    -0.00006185     0.00009470    -0.00017654
C         0.63769614    -0.00320701     0.00391789     0.00001825    -0.00005378    -0.00016490
H        -1.20531416     0.99664649    -0.34364526    -0.00023628    -0.00001045     0.00112960
H        -1.29850042    -0.86662338    -0.32535786     0.00014892    -0.00051457     0.00099116
H         1.15668153     0.96753011    -0.35010075     0.00026201     0.00000224     0.00090942
H         1.21385544    -0.96987041    -0.33191181     0.00034485     0.00003507     0.00103845
     6
  Step:    31            Position(A)                                  Velocity(au)
C        -0.67348439    -0.00471885    -0.00024474    -0.00007621     0.00010393    -0.00019284
C         0.63776399    -0.00335703     0.00344342     0.00003132    -0.00005592    -0.00018203
H        -1.20587730     0.99644365    -0.34040829    -0.00017576    -0.00013764     0.00123711
H        -1.29803234    -0.86799056    -0.32252556     0.00019327    -0.00048493     0.00107982
H         1.15735409     0.96739160    -0.34747513     0.00022988    -0.00010336     0.00101038
H         1.21472031    -0.96961182    -0.32893296     0.00028762     0.00015382     0.00113964
     6
  Step:    32            Position(A)                                  Velocity(au)
C        -0.67371233    -0.00442214    -0.00079423    -0.00009037     0.00011300    -0.00020893
C         0.63786742    -0.00351283     0.00292234     0.00004424    -0.00005801    -0.00019897
H        -1.20627545     0.99589372    -0.33687924    -0.00011574    -0.00026407     0.00134312
H        -1.29744338    -0.86927559    -0.31945210     0.00023723    -0.00045462     0.00116747
H         1.15793877     0.96696481    -0.34457478     0.00019784    -0.00020838     0.00111025
H         1.21542851    -0.96902915    -0.32567884     0.00023039     0.00027187     0.00123969
     6
  Step:    33            Position(A)                                  Velocity(au)
C        -0.67397864    -0.00410086    -0.00138742    -0.00010425     0.00012188    -0.00022478
C         0.63800593    -0.00367430     0.00235521     0.00005695    -0.00006005    -0.00021570
H        -1.20651031     0.99499937    -0.33306246    -0.00005646    -0.00038931     0.00144745
H        -1.29673488    -0.87047697    -0.31614038     0.00028060    -0.00042388     0.00125400
H         1.15843612     0.96625190    -0.34140290     0.00016611    -0.00031241     0.00120888
H         1.21598036    -0.96812490    -0.32215280     0.00017339     0.00038879     0.00133843
     6
  Step:    34            Position(A)                                  Velocity(au)
C        -0.67428252    -0.00375552    -0.00202361    -0.00011781     0.00013058    -0.00024037
C         0.63817891    -0.00384127     0.00174265     0.00006941    -0.00006204    -0.00023218
H        -1.20658426     0.99376451    -0.32896279     0.00000181    -0.00051287     0.00154993
H        -1.29590872    -0.87159389    -0.31259368     0.00032319    -0.00039296     0.00133926
H         1.15884725     0.96525617    -0.33796314     0.00013489    -0.00041501     0.00130608
H         1.21637685    -0.96690275    -0.31835864     0.00011689     0.00050415     0.00143570
     6
  Step:    35            Position(A)                                  Velocity(au)
C        -0.67462297    -0.00338669    -0.00270204    -0.00013097     0.00013906    -0.00025567
C         0.63838553    -0.00401361     0.00108534     0.00008153    -0.00006398    -0.00024840
H        -1.20650039     0.99219435    -0.32458555     0.00005883    -0.00063429     0.00165037
H        -1.29496727    -0.87262615    -0.30881563     0.00036482    -0.00036209     0.00142314
H         1.15917384     0.96398209    -0.33425964     0.00010439    -0.00051577     0.00140169
H         1.21661966    -0.96536761    -0.31430063     0.00006113     0.00061748     0.00153133
     6
  Step:    36            Position(A)                                  Velocity(au)
C        -0.67499885    -0.00299499    -0.00342190    -0.00014369     0.00014729    -0.00027065
C         0.63862482    -0.00419117     0.00038408     0.00009327    -0.00006585    -0.00026432
H        -1.20626252     0.99029544    -0.31993655     0.00011430    -0.00075306     0.00174859
H        -1.29391345    -0.87357424    -0.30481020     0.00040529    -0.00033152     0.00150550
H         1.15941817     0.96243532    -0.33029698     0.00007483    -0.00061423     0.00149553
H         1.21671118    -0.96352561    -0.30998345     0.00000638     0.00072833     0.00162516
     6
  Step:    37            Position(A)                                  Velocity(au)
C        -0.67540885    -0.00258111    -0.00418229    -0.00015590     0.00015527    -0.00028529
C         0.63889565    -0.00437377    -0.00036031     0.00010456    -0.00006767    -0.00027992
H        -1.20587525     0.98807571    -0.31502211     0.00016795    -0.00086866     0.00184442
H        -1.29275066    -0.87443928    -0.30058168     0.00044443    -0.00030147     0.00158624
H         1.15958310     0.96062270    -0.32608023     0.00004643    -0.00070997     0.00158744
H         1.21665456    -0.96138421    -0.30541227    -0.00004708     0.00083622     0.00171702
     6
  Step:    38            Position(A)                                  Velocity(au)
C        -0.67585150    -0.00214579    -0.00498223    -0.00016754     0.00016296    -0.00029957
C         0.63919671    -0.00456125    -0.00114688     0.00011535    -0.00006942    -0.00029517
H        -1.20534398     0.98554455    -0.30984901     0.00021947    -0.00098055     0.00193767
H        -1.29148279    -0.87522306    -0.29613470     0.00048205    -0.00027219     0.00166523
H         1.15967210     0.95855231    -0.32161489     0.00001941    -0.00080254     0.00167726
H         1.21645369    -0.95895216    -0.30059266    -0.00009897     0.00094065     0.00180677
     6
  Step:    39            Position(A)                                  Velocity(au)
C        -0.67632516    -0.00168986    -0.00582070    -0.00018891     0.00019624    -0.00031457
C         0.63952651    -0.00475343    -0.00197464     0.00013759    -0.00009380    -0.00031161
H        -1.20467495     0.98271286    -0.30442454     0.00019340    -0.00113081     0.00214878
H        -1.29011421    -0.87592795    -0.29147416     0.00058697    -0.00026599     0.00163881
H         1.15968924     0.95623344    -0.31690692    -0.00008346    -0.00089726     0.00166833
H         1.21611326    -0.95623957    -0.29553066    -0.00008537     0.00107327     0.00200569
     6
  Step:    40            Position(A)                                  Velocity(au)
C        -0.67688471    -0.00107248    -0.00670270    -0.00010445     0.00011787    -0.00016471
C         0.63994924    -0.00507424    -0.00285113     0.00007969    -0.00006220    -0.00016403
H        -1.20428625     0.97935991    -0.29809684     0.00006673    -0.00064245     0.00119483
H        -1.28827250    -0.87667784    -0.28717166     0.00035048    -0.00013175     0.00079076
H         1.15921564     0.95364499    -0.31249040    -0.00009954    -0.00049475     0.00081468
H         1.21598680    -0.95308221    -0.28962310    -0.00002263     0.00060556     0.00111701
     6
  Step:    41            Position(A)                                  Velocity(au)
C        -0.67718237    -0.00072253    -0.00717247    -0.00011222     0.00013477    -0.00017873
C         0.64018050    -0.00526387    -0.00332079     0.00008811    -0.00007359    -0.00017924
H        -1.20412732     0.97744037    -0.29461873     0.00005780    -0.00075579     0.00133428
H        -1.28723784    -0.87700923    -0.28498452     0.00039722    -0.00010753     0.00082158
H         1.15887236     0.95217308    -0.31022091    -0.00014039    -0.00058070     0.00085673
H         1.21592757    -0.95126983    -0.28636350    -0.00002736     0.00071494     0.00125313
     6
  Step:    42            Position(A)                                  Velocity(au)
C        -0.67749845    -0.00033537    -0.00768024    -0.00011857     0.00014601    -0.00019253
C         0.64043113    -0.00547672    -0.00383146     0.00009454    -0.00007994    -0.00019407
H        -1.20397011     0.97522631    -0.29079935     0.00006329    -0.00085936     0.00144851
H        -1.28610003    -0.87726595    -0.28267827     0.00042873    -0.00007820     0.00087425
H         1.15844781     0.95046904    -0.30780477    -0.00016210    -0.00066483     0.00091872
H         1.21583714    -0.94917207    -0.28276946    -0.00004361     0.00081506     0.00136527
     6
  Step:    43            Position(A)                                  Velocity(au)
C        -0.67783085     0.00007603    -0.00822545    -0.00012447     0.00015314    -0.00020612
C         0.64069758    -0.00570106    -0.00438220     0.00010007    -0.00008254    -0.00020858
H        -1.20378119     0.97274035    -0.28669649     0.00007918    -0.00095540     0.00154436
H        -1.28489301    -0.87743691    -0.28020307     0.00044962    -0.00004560     0.00094251
H         1.15798581     0.94853699    -0.30519623    -0.00016998    -0.00074752     0.00099509
H         1.21568904    -0.94681207    -0.27889654    -0.00006813     0.00090722     0.00145966
     6
  Step:    44            Position(A)                                  Velocity(au)
C        -0.67817919     0.00050219    -0.00880758    -0.00013034     0.00015726    -0.00021952
C         0.64097845    -0.00592814    -0.00497221     0.00010527    -0.00008235    -0.00022280
H        -1.20353707     0.97000100    -0.28235290     0.00010212    -0.00104498     0.00162651
H        -1.28364098    -0.87751534    -0.27752346     0.00046282    -0.00001113     0.00102176
H         1.15751816     0.94638066    -0.30236239    -0.00016778    -0.00082875     0.00108171
H         1.21546450    -0.94421029    -0.27478627    -0.00009836     0.00099220     0.00154074
     6