     8
  Step:  1000            Position(A)                                  Velocity(au)
Si       -0.02091761    -0.01494781    -0.00244805     0.00000511     0.00009753    -0.00007457
Si        1.35410315     1.38834639     1.38052445    -0.00008070    -0.00010095     0.00019835
Si        2.72911060     2.72997837    -0.03115663     0.00002933     0.00008533    -0.00013771
Si        4.10152180     4.08244006     1.40966989     0.00015101     0.00000074     0.00015286
Si        2.69892151     0.02160054     2.74835013    -0.00006150     0.00009000     0.00009880
Si        4.10959629     1.32283770     4.00516565     0.00016194    -0.00008028    -0.00016796
Si        0.03524787     2.67151725     2.71124419     0.00001689     0.00000811     0.00005165
Si        1.27369244     4.07950351     4.05992639    -0.00022209    -0.00010048    -0.00012142
