     8
  Step:     0            Position(A)                                  Velocity(au)
Si       -0.01498875    -0.01599422     0.02851326    -0.00005552    -0.00004139     0.00011770
Si        1.41594312     1.39213115     1.31880813     0.00023361     0.00012056    -0.00015022
Si        2.72749090     2.72250414     0.01534618     0.00006711     0.00004999     0.00003960
Si        4.03938300     4.08302728     1.33289315    -0.00011756     0.00004401    -0.00007347
Si        2.70751873    -0.00952582     2.71447863    -0.00003780    -0.00003777     0.00001075
Si        4.04477119     1.35450792     4.08163676    -0.00009118    -0.00001455     0.00004106
Si        0.00973494     2.68624342     2.67828216     0.00003586    -0.00010294    -0.00014122
Si        1.35142287     4.06838213     4.11131773    -0.00003453    -0.00001790     0.00015580
     8
  Step:     1            Position(A)                                  Velocity(au)
Si       -0.01616184    -0.01680194     0.03104486    -0.00005157    -0.00003216     0.00011357
Si        1.42093278     1.39463974     1.31560134     0.00022210     0.00010836    -0.00014264
Si        2.72896911     2.72362502     0.01611354     0.00006805     0.00005255     0.00003021
Si        4.03689011     4.08394853     1.33140117    -0.00011006     0.00004011    -0.00006255
Si        2.70666004    -0.01033389     2.71473684    -0.00004080    -0.00003605     0.00001295
Si        4.04286049     1.35417601     4.08249683    -0.00008321    -0.00001583     0.00003742
Si        0.01049299     2.68405823     2.67525857     0.00003336    -0.00009663    -0.00013496
Si        1.35063231     4.06796430     4.11462286    -0.00003786    -0.00002035     0.00014600
     8
  Step:     2            Position(A)                                  Velocity(au)
Si       -0.01724517    -0.01740134     0.03348237    -0.00004733    -0.00002239     0.00010911
Si        1.42566066     1.39687252     1.31256725     0.00020972     0.00009539    -0.00013445
Si        2.73046826     2.72480324     0.01666815     0.00006902     0.00005521     0.00002019
Si        4.03456748     4.08478216     1.33015648    -0.00010201     0.00003602    -0.00005090
Si        2.70573368    -0.01110315     2.71504503    -0.00004397    -0.00003423     0.00001531
Si        4.04113035     1.35381549     4.08327384    -0.00007469    -0.00001716     0.00003347
Si        0.01119446     2.68201547     2.67237727     0.00003070    -0.00008995    -0.00012823
Si        1.34976629     4.06749162     4.11770561    -0.00004142    -0.00002290     0.00013549
     8
  Step:     3            Position(A)                                  Velocity(au)
Si       -0.01823287    -0.01778162     0.03581880    -0.00004284    -0.00001217     0.00010434
Si        1.43010873     1.39881355     1.30971863     0.00019656     0.00008175    -0.00012570
Si        2.73198890     2.72604080     0.01699691     0.00007000     0.00005795     0.00000961
Si        4.03242661     4.08552461     1.32917408    -0.00009346     0.00003179    -0.00003861
Si        2.70473628    -0.01183151     2.71540673    -0.00004728    -0.00003232     0.00001783
Si        4.03959236     1.35342513     4.08396138    -0.00006567    -0.00001855     0.00002924
Si        0.01183609     2.68012268     2.66964819     0.00002790    -0.00008295    -0.00012106
Si        1.34881990     4.06696235     4.12055128    -0.00004520    -0.00002551     0.00012435
     8
  Step:     4            Position(A)                                  Velocity(au)
Si       -0.01911972    -0.01793392     0.03804764    -0.00003813    -0.00000159     0.00009928
Si        1.43426071     1.40044932     1.30706718     0.00018269     0.00006754    -0.00011645
Si        2.73353112     2.72733887     0.01708845     0.00007098     0.00006072    -0.00000145
Si        4.03047807     4.08617327     1.32846714    -0.00008445     0.00002747    -0.00002576
Si        2.70366510    -0.01251728     2.71582519    -0.00005070    -0.00003034     0.00002049
Si        4.03825695     1.35300404     4.08455340    -0.00005620    -0.00001996     0.00002475
Si        0.01241512     2.67838621     2.66708052     0.00002498    -0.00007568    -0.00011349
Si        1.34778864     4.06637550     4.12314649    -0.00004917    -0.00002815     0.00011263
     8
  Step:     5            Position(A)                                  Velocity(au)
Si       -0.01990124    -0.01785141     0.04016288    -0.00003323     0.00000925     0.00009397
Si        1.43810213     1.40176887     1.30462332     0.00016821     0.00005290    -0.00010676
Si        2.73509449     2.72869765     0.01693334     0.00007192     0.00006348    -0.00001290
Si        4.02873144     4.08672641     1.32804692    -0.00007503     0.00002308    -0.00001244
Si        2.70251811    -0.01315916     2.71630342    -0.00005419    -0.00002832     0.00002329
Si        4.03713335     1.35255167     4.08504423    -0.00004634    -0.00002140     0.00002000
Si        0.01292925     2.67681122     2.66468262     0.00002198    -0.00006821    -0.00010556
Si        1.34666846     4.06573074     4.12547928    -0.00005332    -0.00003079     0.00010040
     8
  Step:     6            Position(A)                                  Velocity(au)
Si       -0.02057374    -0.01752935     0.04215908    -0.00002818     0.00002026     0.00008841
Si        1.44162050     1.40276398     1.30239616     0.00015320     0.00003795    -0.00009668
Si        2.73667803     2.73011639     0.01652413     0.00007281     0.00006618    -0.00002463
Si        4.02719526     4.08718325     1.32792268    -0.00006524     0.00001868     0.00000125
Si        2.70129398    -0.01375627     2.71684417    -0.00005773    -0.00002626     0.00002620
Si        4.03622949     1.35206787     4.08542857    -0.00003614    -0.00002283     0.00001502
Si        0.01337672     2.67540162     2.66246204     0.00001890    -0.00006059    -0.00009730
Si        1.34545577     4.06502851     4.12753916    -0.00005762    -0.00003339     0.00008772
     8
  Step:     7            Position(A)                                  Velocity(au)
Si       -0.02113433    -0.01696517     0.04403136    -0.00002302     0.00003133     0.00008265
Si        1.44480540     1.40342920     1.30039336     0.00013777     0.00002281    -0.00008628
Si        2.73828014     2.73159333     0.01585552     0.00007361     0.00006878    -0.00003656
Si        4.02587700     4.08754388     1.32810164    -0.00005513     0.00001431     0.00001523
Si        2.69999208    -0.01430813     2.71744989    -0.00006128    -0.00002419     0.00002922
Si        4.03555202     1.35155284     4.08570158    -0.00002567    -0.00002424     0.00000983
Si        0.01375627     2.67416010     2.66042548     0.00001578    -0.00005288    -0.00008875
Si        1.34414742     4.06426996     4.12931717    -0.00006205    -0.00003592     0.00007466
     8
  Step:     8            Position(A)                                  Velocity(au)
Si       -0.02158098    -0.01615844     0.04577545    -0.00001779     0.00004238     0.00007671
Si        1.44764852     1.40376194     1.29862105     0.00012201     0.00000762    -0.00007564
Si        2.73989867     2.73312573     0.01492435     0.00007430     0.00007123    -0.00004859
Si        4.02478300     4.08780929     1.32858888    -0.00004476     0.00001000     0.00002939
Si        2.69861254    -0.01481471     2.71812277    -0.00006481    -0.00002213     0.00003233
Si        4.03510626     1.35100715     4.08585885    -0.00001499    -0.00002562     0.00000445
Si        0.01406721     2.67308806     2.65857873     0.00001264    -0.00004513    -0.00007997
Si        1.34274078     4.06345697     4.13080592    -0.00006659    -0.00003835     0.00006131
     8
  Step:     9            Position(A)                                  Velocity(au)
Si       -0.02191254    -0.01511094     0.04738768    -0.00001252     0.00005329     0.00007061
Si        1.45014377     1.40376254     1.29708385     0.00010602    -0.00000749    -0.00006482
Si        2.74153086     2.73470984     0.01372972     0.00007484     0.00007348    -0.00006060
Si        4.02391843     4.08798132     1.32938735    -0.00003418     0.00000579     0.00004363
Si        2.69715624    -0.01527636     2.71886465    -0.00006829    -0.00002009     0.00003552
Si        4.03489614     1.35043178     4.08589646    -0.00000416    -0.00002695    -0.00000109
Si        0.01430938     2.67218570     2.65692668     0.00000951    -0.00003739    -0.00007098
Si        1.34123372     4.06259213     4.13199962    -0.00007122    -0.00004064     0.00004773
     8
  Step:    10            Position(A)                                  Velocity(au)
Si       -0.02212872    -0.01382661     0.04886499    -0.00000726     0.00006398     0.00006439
Si        1.45228728     1.40343422     1.29578475     0.00008990    -0.00002239    -0.00005391
Si        2.74317335     2.73634094     0.01227294     0.00007523     0.00007550    -0.00007250
Si        4.02328729     4.08806265     1.33049781    -0.00002345     0.00000172     0.00005786
Si        2.69562480    -0.01569389     2.71967710    -0.00007167    -0.00001810     0.00003878
Si        4.03492422     1.34982805     4.08581098     0.00000675    -0.00002821    -0.00000679
Si        0.01448316     2.67145194     2.65547329     0.00000640    -0.00002974    -0.00006183
Si        1.33962463     4.06167870     4.13289414    -0.00007591    -0.00004277     0.00003399
     8
  Step:    11            Position(A)                                  Velocity(au)
Si       -0.02223014    -0.01231155     0.05020496    -0.00000205     0.00007434     0.00005807
Si        1.45407742     1.40278309     1.29472517     0.00007376    -0.00003694    -0.00004296
Si        2.74482227     2.73801341     0.01055758     0.00007542     0.00007725    -0.00008419
Si        4.02289230     4.08805674     1.33191883    -0.00001262    -0.00000217     0.00007197
Si        2.69402058    -0.01606849     2.72056135    -0.00007492    -0.00001618     0.00004208
Si        4.03519164     1.34919766     4.08559952     0.00001769    -0.00002938    -0.00001260
Si        0.01458949     2.67088451     2.65422158     0.00000335    -0.00002222    -0.00005256
Si        1.33791244     4.06072063     4.13348700    -0.00008063    -0.00004471     0.00002019
     8
  Step:    12            Position(A)                                  Velocity(au)
Si       -0.02221831    -0.01057396     0.05140578     0.00000308     0.00008428     0.00005168
Si        1.45551476     1.40181811     1.29390494     0.00005770    -0.00005102    -0.00003206
Si        2.74647320     2.73972074     0.00858945     0.00007540     0.00007867    -0.00009556
Si        4.02273495     4.08796780     1.33364679    -0.00000176    -0.00000585     0.00008587
Si        2.69234671    -0.01640175     2.72151829    -0.00007802    -0.00001433     0.00004542
Si        4.03569816     1.34854265     4.08525973     0.00002858    -0.00003045    -0.00001851
Si        0.01462985     2.67047994     2.65317360     0.00000038    -0.00001488    -0.00004322
Si        1.33609667     4.05972247     4.13377742    -0.00008536    -0.00004642     0.00000638
     8
  Step:    13            Position(A)                                  Velocity(au)
Si       -0.02209558    -0.00862406     0.05246626     0.00000807     0.00009370     0.00004525
Si        1.45660210     1.40055095     1.29332234     0.00004181    -0.00006450    -0.00002127
Si        2.74812128     2.74145562     0.00637649     0.00007515     0.00007975    -0.00010652
Si        4.02281541     4.08780074     1.33567590     0.00000909    -0.00000929     0.00009945
Si        2.69060703    -0.01669564     2.72254845    -0.00008092    -0.00001259     0.00004877
Si        4.03644210     1.34786541     4.08478982     0.00003936    -0.00003140    -0.00002448
Si        0.01460625     2.67023358     2.65233043    -0.00000248    -0.00000778    -0.00003386
Si        1.33417741     4.05868940     4.13376629    -0.00009008    -0.00004789    -0.00000734
     8
  Step:    14            Position(A)                                  Velocity(au)
Si       -0.02186520    -0.00647407     0.05338579     0.00001290     0.00010253     0.00003881
Si        1.45734432     1.39899592     1.29297417     0.00002620    -0.00007728    -0.00001066
Si        2.74976126     2.74321003     0.00392876     0.00007465     0.00008044    -0.00011698
Si        4.02313254     4.08756113     1.33799821     0.00001985    -0.00001247     0.00011262
Si        2.68880611    -0.01695246     2.72365203    -0.00008360    -0.00001095     0.00005212
Si        4.03742040     1.34716864     4.08418861     0.00004997    -0.00003223    -0.00003050
Si        0.01452120     2.67013968     2.65169221    -0.00000522    -0.00000096    -0.00002451
Si        1.33215537     4.05762713     4.13345622    -0.00009475    -0.00004908    -0.00002091
     8
  Step:    15            Position(A)                                  Velocity(au)
Si       -0.02153121    -0.00413805     0.05416435     0.00001752     0.00011067     0.00003238
Si        1.45774837     1.39716980     1.29285581     0.00001094    -0.00008923    -0.00000029
Si        2.75138755     2.74497536     0.00125831     0.00007389     0.00008073    -0.00012684
Si        4.02368386     4.08725512     1.34060367     0.00003047    -0.00001535     0.00012529
Si        2.68694921    -0.01717485     2.72482882    -0.00008602    -0.00000944     0.00005545
Si        4.03862860     1.34645533     4.08345550     0.00006035    -0.00003291    -0.00003652
Si        0.01437773     2.67019141     2.65125807    -0.00000781     0.00000551    -0.00001522
Si        1.33003189     4.05654188     4.13285147    -0.00009934    -0.00004998    -0.00003424
     8
  Step:    16            Position(A)                                  Velocity(au)
Si       -0.02109845    -0.00163182     0.05480248     0.00002191     0.00011805     0.00002598
Si        1.45782315     1.39509170     1.29296130    -0.00000386    -0.00010027     0.00000977
Si        2.75299429     2.74674247    -0.00162092     0.00007286     0.00008060    -0.00013602
Si        4.02446554     4.08688941     1.34348017     0.00004088    -0.00001792     0.00013736
Si        2.68504227    -0.01736570     2.72607825    -0.00008816    -0.00000808     0.00005875
Si        4.04006088     1.34572872     4.08259053     0.00007043    -0.00003344    -0.00004254
Si        0.01417934     2.67038090     2.65102619    -0.00001023     0.00001161    -0.00000604
Si        1.32780899     4.05544032     4.13195800    -0.00010382    -0.00005056    -0.00004727
     8
  Step:    17            Position(A)                                  Velocity(au)
Si       -0.02057251     0.00102720     0.05530125     0.00002603     0.00012460     0.00001965
Si        1.45757942     1.39278281     1.29328348    -0.00001814    -0.00011029     0.00001949
Si        2.75457546     2.74850183    -0.00469325     0.00007155     0.00008002    -0.00014446
Si        4.02547242     4.08647117     1.34661365     0.00005102    -0.00002014     0.00014874
Si        2.68309185    -0.01752818     2.72739933    -0.00008998    -0.00000686     0.00006199
Si        4.04171007     1.34499230     4.08159436     0.00008015    -0.00003380    -0.00004850
Si        0.01392995     2.67069933     2.65099377    -0.00001247     0.00001728     0.00000299
Si        1.32548933     4.05432955     4.13078341    -0.00010817    -0.00005082    -0.00005991
     8
  Step:    18            Position(A)                                  Velocity(au)
Si       -0.01995965     0.00382006     0.05566223     0.00002984     0.00013026     0.00001340
Si        1.45702963     1.39026627     1.29381406    -0.00003180    -0.00011921     0.00002880
Si        2.75612494     2.75024362    -0.00794139     0.00006996     0.00007899    -0.00015206
Si        4.02669799     4.08600801     1.34998813     0.00006084    -0.00002202     0.00015935
Si        2.68110514    -0.01766566     2.72879069    -0.00009147    -0.00000579     0.00006516
Si        4.04356772     1.34424975     4.08046832     0.00008946    -0.00003399    -0.00005440
Si        0.01363393     2.67113699     2.65115706    -0.00001449     0.00002249     0.00001183
Si        1.32307630     4.05321696     4.12933691    -0.00011234    -0.00005072    -0.00007209
     8
  Step:    19            Position(A)                                  Velocity(au)
Si       -0.01926679     0.00672654     0.05588748     0.00003333     0.00013496     0.00000725
Si        1.45618784     1.38756686     1.29454374    -0.00004480    -0.00012697     0.00003767
Si        2.75763658     2.75195787    -0.01134660     0.00006809     0.00007750    -0.00015879
Si        4.02813441     4.08550787     1.35358588     0.00007027    -0.00002352     0.00016911
Si        2.67908987    -0.01778166     2.73025051    -0.00009258    -0.00000489     0.00006824
Si        4.04562410     1.34350492     4.07921436     0.00009829    -0.00003401    -0.00006018
Si        0.01329599     2.67168333     2.65151136    -0.00001629     0.00002720     0.00002043
Si        1.32057400     4.05211027     4.12762928    -0.00011631    -0.00005027    -0.00008374
     8
  Step:    20            Position(A)                                  Velocity(au)
Si       -0.01850140     0.00972523     0.05597948     0.00004765     0.00018122     0.00000160
Si        1.45506952     1.38471081     1.29546236    -0.00007456    -0.00017448     0.00006019
Si        2.75910428     2.75363455    -0.01488887     0.00008619     0.00009874    -0.00021507
Si        4.02977254     4.08497903     1.35738744     0.00010357    -0.00003220     0.00023256
Si        2.67705431    -0.01787982     2.73177656    -0.00012195    -0.00000544     0.00009306
Si        4.04786828     1.34276176     4.07783513     0.00013931    -0.00004422    -0.00008604
Si        0.01292122     2.67232706     2.65205106    -0.00002333     0.00004101     0.00003758
Si        1.31798723     4.05101738     4.12567282    -0.00015688    -0.00006463    -0.00012390
     8
  Step:    21            Position(A)                                  Velocity(au)
Si       -0.01742664     0.01372474     0.05594939     0.00005035     0.00018373    -0.00000426
Si        1.45330840     1.38082919     1.29686826    -0.00008591    -0.00017954     0.00006799
Si        2.76096482     2.75577096    -0.01965195     0.00008373     0.00009628    -0.00021972
Si        4.03213408     4.08426455     1.36256655     0.00011198    -0.00003286     0.00024025
Si        2.67438074    -0.01799181     2.73384422    -0.00012220    -0.00000491     0.00009587
Si        4.05100384     1.34179713     4.07589196     0.00014695    -0.00004384    -0.00009149
Si        0.01239514     2.67326692     2.65296272    -0.00002460     0.00004454     0.00004554
Si        1.31451563     4.04961431     4.12284484    -0.00016031    -0.00006339    -0.00013419
     8
  Step:    22            Position(A)                                  Velocity(au)
Si       -0.01629821     0.01776398     0.05579319     0.00005255     0.00018484    -0.00000992
Si        1.45131066     1.37685508     1.29843732    -0.00009618    -0.00018292     0.00007510
Si        2.76276790     2.75784710    -0.02450245     0.00008094     0.00009324    -0.00022305
Si        4.03467193     4.08354115     1.36789946     0.00011967    -0.00003301     0.00024659
Si        2.67170749    -0.01809454     2.73597141    -0.00012191    -0.00000459     0.00009849
Si        4.05429806     1.34084354     4.07383193     0.00015379    -0.00004322    -0.00009670
Si        0.01184489     2.67427596     2.65404373    -0.00002553     0.00004732     0.00005305
Si        1.31097327     4.04824374     4.11980141    -0.00016334    -0.00006166    -0.00014356
     8
  Step:    23            Position(A)                                  Velocity(au)
Si       -0.01512735     0.02181228     0.05551538     0.00005423     0.00018455    -0.00001537
Si        1.44910031     1.37282573     1.30015435    -0.00010533    -0.00018459     0.00008152
Si        2.76450637     2.75985063    -0.02941127     0.00007783     0.00008965    -0.00022505
Si        4.03736990     4.08282025     1.37335590     0.00012659    -0.00003263     0.00025152
Si        2.66904683    -0.01819284     2.73815369    -0.00012105    -0.00000450     0.00010090
Si        4.05773287     1.33990625     4.07166079     0.00015979    -0.00004235    -0.00010164
Si        0.01127798     2.67533742     2.65528368    -0.00002612     0.00004933     0.00006006
Si        1.30736909     4.04691628     4.11656348    -0.00016594    -0.00005945    -0.00015195
     8
  Step:    24            Position(A)                                  Velocity(au)
Si       -0.01392550     0.02583870     0.05512073     0.00005538     0.00018284    -0.00002060
Si        1.44670198     1.36877850     1.30200398    -0.00011335    -0.00018456     0.00008723
Si        2.76617348     2.76176973    -0.03434903     0.00007443     0.00008554    -0.00022569
Si        4.04021068     4.08211333     1.37890458     0.00013270    -0.00003173     0.00025501
Si        2.66641126    -0.01829138     2.74038616    -0.00011961    -0.00000461     0.00010307
Si        4.06128927     1.33899043     4.06938497     0.00016489    -0.00004126    -0.00010626
Si        0.01070202     2.67643420     2.65667139    -0.00002636     0.00005055     0.00006654
Si        1.30371280     4.04564248     4.11315322    -0.00016808    -0.00005676    -0.00015929
     8
  Step:    25            Position(A)                                  Velocity(au)
Si       -0.01270425     0.02981229     0.05461424     0.00005600     0.00017972    -0.00002559
Si        1.44414071     1.36475052     1.30397085    -0.00012022    -0.00018284     0.00009223
Si        2.76776297     2.76359324    -0.03928625     0.00007075     0.00008093    -0.00022500
Si        4.04317600     4.08143178     1.38451337     0.00013795    -0.00003032     0.00025701
Si        2.66381351    -0.01839469     2.74266348    -0.00011759    -0.00000493     0.00010499
Si        4.06494748     1.33810111     4.06701153     0.00016908    -0.00003994    -0.00011054
Si        0.01012470     2.67754901     2.65819486    -0.00002625     0.00005097     0.00007245
Si        1.30001490     4.04443273     4.10959391    -0.00016973    -0.00005360    -0.00016555
     8
  Step:    26            Position(A)                                  Velocity(au)
Si       -0.01147519     0.03370235     0.05400109     0.00005610     0.00017522    -0.00003034
Si        1.44144183     1.36077837     1.30603961    -0.00012593    -0.00017948     0.00009655
Si        2.76926906     2.76531072    -0.04419361     0.00006682     0.00007586    -0.00022297
Si        4.04624670     4.08078685     1.39014961     0.00014232    -0.00002839     0.00025751
Si        2.66126639    -0.01850701     2.74497986    -0.00011498    -0.00000543     0.00010663
Si        4.06868696     1.33724309     4.06454823     0.00017231    -0.00003840    -0.00011446
Si        0.00955364     2.67866450     2.65984143    -0.00002579     0.00005061     0.00007777
Si        1.29628661     4.04329713     4.10590978    -0.00017084    -0.00004999    -0.00017068
     8
  Step:    27            Position(A)                                  Velocity(au)
Si       -0.01024980     0.03747876     0.05328670     0.00005567     0.00016935    -0.00003484
Si        1.43863073     1.35689777     1.30819510    -0.00013048    -0.00017450     0.00010017
Si        2.77068648     2.76691251    -0.04904216     0.00006266     0.00007037    -0.00021964
Si        4.04940291     4.08018952     1.39578026     0.00014576    -0.00002597     0.00025649
Si        2.65878271    -0.01863230     2.74732905    -0.00011179    -0.00000610     0.00010798
Si        4.07248665     1.33642089     4.06200341     0.00017457    -0.00003667    -0.00011798
Si        0.00899641     2.67976345     2.66159775    -0.00002499     0.00004947     0.00008247
Si        1.29253991     4.04224541     4.10212588    -0.00017139    -0.00004595    -0.00017466
     8
  Step:    28            Position(A)                                  Velocity(au)
Si       -0.00903936     0.04111217     0.05247661     0.00005474     0.00016217    -0.00003909
Si        1.43573271     1.35314322     1.31042241    -0.00013388    -0.00016798     0.00010312
Si        2.77201046     2.76838983    -0.05380352     0.00005829     0.00006450    -0.00021502
Si        4.05262418     4.07965043     1.40137221     0.00014826    -0.00002308     0.00025397
Si        2.65637521    -0.01877413     2.74970434    -0.00010802    -0.00000693     0.00010901
Si        4.07632500     1.33563872     4.05938610     0.00017584    -0.00003475    -0.00012108
Si        0.00846038     2.68082891     2.66344995    -0.00002385     0.00004756     0.00008653
Si        1.28878742     4.04128684     4.09826791    -0.00017136    -0.00004149    -0.00017744
     8
  Step:    29            Position(A)                                  Velocity(au)
Si       -0.00785486     0.04457431     0.05157657     0.00005331     0.00015372    -0.00004306
Si        1.43277281     1.34954780     1.31270691    -0.00013615    -0.00015999     0.00010541
Si        2.77323675     2.76973480    -0.05845005     0.00005374     0.00005830    -0.00020916
Si        4.05588964     4.07917973     1.40689245     0.00014979    -0.00001973     0.00024995
Si        2.65405642    -0.01893563     2.75209858    -0.00010368    -0.00000789     0.00010970
Si        4.08018014     1.33490043     4.05670589     0.00017610    -0.00003267    -0.00012372
Si        0.00795267     2.68184441     2.66538359    -0.00002240     0.00004491     0.00008991
Si        1.28504243     4.04043015     4.09436206    -0.00017070    -0.00003665    -0.00017903
     8
  Step:    30            Position(A)                                  Velocity(au)
Si       -0.00670689     0.04783819     0.05059248     0.00005141     0.00014408    -0.00004677
Si        1.42977565     1.34614285     1.31503432    -0.00013730    -0.00015062     0.00010705
Si        2.77436157     2.77094051    -0.06295503     0.00004902     0.00005180    -0.00020210
Si        4.05917818     4.07878697     1.41230836     0.00015036    -0.00001597     0.00024445
Si        2.65183865    -0.01911946     2.75450420    -0.00009879    -0.00000896     0.00011004
Si        4.08403000     1.33420943     4.05397298     0.00017535    -0.00003044    -0.00012588
Si        0.00748008     2.68279408     2.66738384    -0.00002065     0.00004156     0.00009261
Si        1.28131876     4.03968343     4.09043486    -0.00016939    -0.00003145    -0.00017939
     8
  Step:    31            Position(A)                                  Velocity(au)
Si       -0.00560554     0.05087841     0.04953042     0.00004906     0.00013332    -0.00005019
Si        1.42676529     1.34295770     1.31739076    -0.00013737    -0.00013995     0.00010807
Si        2.77538166     2.77200103    -0.06729285     0.00004417     0.00004505    -0.00019390
Si        4.06246856     4.07848105     1.41758791     0.00014996    -0.00001181     0.00023750
Si        2.64973378    -0.01932777     2.75691318    -0.00009337    -0.00001012     0.00011000
Si        4.08785246     1.33356870     4.05119814     0.00017360    -0.00002808    -0.00012754
Si        0.00704900     2.68366286     2.66943550    -0.00001862     0.00003754     0.00009460
Si        1.27763077     4.03905404     4.08651295    -0.00016743    -0.00002594    -0.00017854
     8
  Step:    32            Position(A)                                  Velocity(au)
Si       -0.00456032     0.05367130     0.04839663     0.00004629     0.00012152    -0.00005332
Si        1.42376510     1.34001949     1.31976271    -0.00013639    -0.00012810     0.00010848
Si        2.77629420     2.77291144    -0.07143911     0.00003920     0.00003809    -0.00018462
Si        4.06573967     4.07827006     1.42269991     0.00014861    -0.00000731     0.00022915
Si        2.64775329    -0.01956215     2.75931711    -0.00008744    -0.00001133     0.00010957
Si        4.09162546     1.33298072     4.04839268     0.00017083    -0.00002563    -0.00012867
Si        0.00666536     2.68443662     2.67152312    -0.00001633     0.00003290     0.00009589
Si        1.27399325     4.03854853     4.08262295    -0.00016477    -0.00002015    -0.00017648
     8
  Step:    33            Position(A)                                  Velocity(au)
Si       -0.00358010     0.05619520     0.04719756     0.00004314     0.00010877    -0.00005615
Si        1.42079762     1.33735294     1.32213709    -0.00013440    -0.00011517     0.00010830
Si        2.77709678     2.77366783    -0.07537076     0.00003413     0.00003099    -0.00017432
Si        4.06897061     4.07816120     1.42761422     0.00014630    -0.00000250     0.00021946
Si        2.64590806    -0.01982360     2.76170720    -0.00008102    -0.00001258     0.00010873
Si        4.09532714     1.33244745     4.04556841     0.00016708    -0.00002309    -0.00012925
Si        0.00633459     2.68510239     2.67363105    -0.00001380     0.00002770     0.00009646
Si        1.27042131     4.03817258     4.07879125    -0.00016142    -0.00001412    -0.00017322
     8
  Step:    34            Position(A)                                  Velocity(au)
Si       -0.00267297     0.05843061     0.04593983     0.00003963     0.00009520    -0.00005868
Si        1.41788442     1.33498016     1.32450119    -0.00013145    -0.00010130     0.00010755
Si        2.77778745     2.77426730    -0.07906625     0.00002898     0.00002377    -0.00016307
Si        4.07214090     4.07816069     1.43230194     0.00014307     0.00000257     0.00020847
Si        2.64420838    -0.02011250     2.76407429    -0.00007415    -0.00001383     0.00010746
Si        4.09893597     1.33197034     4.04273761     0.00016236    -0.00002050    -0.00012926
Si        0.00606153     2.68564848     2.67574361    -0.00001107     0.00002199     0.00009631