     6
  Step:  1000            Position(A)                                  Velocity(au)
C         1.51366427     2.29657677     2.19139154    -0.00005968     0.00005766    -0.00008050
N         2.78866874     2.12690074     2.22383798     0.00017393     0.00008551     0.00005849
H         0.90555997     1.50487206     1.73319983    -0.00038018     0.00032363     0.00021491
H         1.00157106     3.18842254     2.58512225    -0.00122420    -0.00115864    -0.00001725
H         3.25900906     1.39448026     1.66077461    -0.00097888    -0.00069002     0.00004793
H         3.45263640     2.69072652     2.77935397     0.00087745    -0.00035035    -0.00009916
