     6
  Step:     0            Position(A)                                  Velocity(au)
C         1.51410321     2.28236325     2.19884472     0.00002671    -0.00010330     0.00004871
N         2.79315507     2.16099439     2.21554559    -0.00004087     0.00017187     0.00013434
H         0.99875994     1.66114799     2.93216049    -0.00100507     0.00019113    -0.00024745
H         0.93234643     2.90587974     1.48786410     0.00089679    -0.00006276    -0.00027862
H         3.46583750     2.48496338     1.50579636    -0.00034025    -0.00092241    -0.00072712
H         3.15630893     1.42158828     2.85795645     0.00068502    -0.00036011    -0.00118705
     6
  Step:     1            Position(A)                                  Velocity(au)
C         1.51408864     2.28209432     2.19897985    -0.00003735    -0.00009342     0.00005012
N         2.79312050     2.16145834     2.21592044     0.00001558     0.00016747     0.00013980
H         0.99595545     1.66161814     2.93149665    -0.00104515     0.00015289    -0.00023836
H         0.93482977     2.90569238     1.48706013     0.00091904    -0.00007399    -0.00030964
H         3.46489316     2.48243709     1.50374517    -0.00035063    -0.00092516    -0.00077303
H         3.15819228     1.42059819     2.85467551     0.00069220    -0.00036449    -0.00121188
     6
  Step:     2            Position(A)                                  Velocity(au)
C         1.51389891     2.28185230     2.19911886    -0.00010133    -0.00008363     0.00005156
N         2.79324027     2.16191034     2.21631017     0.00007194     0.00016314     0.00014522
H         0.99304375     1.66198417     2.93085686    -0.00108341     0.00011507    -0.00022994
H         0.93737288     2.90547506     1.48617061     0.00094046    -0.00008467    -0.00034119
H         3.46391980     2.47990345     1.50156847    -0.00036146    -0.00092779    -0.00081887
H         3.16009474     1.41959479     2.85132840     0.00069904    -0.00036990    -0.00123541
     6
  Step:     3            Position(A)                                  Velocity(au)
C         1.51353445     2.28163693     2.19926186    -0.00016507    -0.00007395     0.00005305
N         2.79351394     2.16235061     2.21671467     0.00012806     0.00015890     0.00015059
H         0.99003005     1.66224751     2.93023903    -0.00111968     0.00007787    -0.00022239
H         0.93997334     2.90522931     1.48519408     0.00096094    -0.00009478    -0.00037327
H         3.46291625     2.47736278     1.49926657    -0.00037269    -0.00093031    -0.00086456
H         3.16201550     1.41857513     2.84791880     0.00070563    -0.00037643    -0.00125755
     6
  Step:     4            Position(A)                                  Velocity(au)
C         1.51299609     2.28144787     2.19940899    -0.00022843    -0.00006440     0.00005459
N         2.79394069     2.16277939     2.21713379     0.00018383     0.00015475     0.00015591
H         0.98691997     1.66241005     2.92964058    -0.00115384     0.00004144    -0.00021585
H         0.94262848     2.90495670     1.48412910     0.00098040    -0.00010431    -0.00040588
H         3.46188147     2.47481539     1.49683999    -0.00038428    -0.00093271    -0.00091002
H         3.16395398     1.41753599     2.84445057     0.00071205    -0.00038419    -0.00127824
     6
  Step:     5            Position(A)                                  Velocity(au)
C         1.51228510     2.28128471     2.19956042    -0.00029126    -0.00005502     0.00005620
N         2.79451932     2.16319697     2.21756735     0.00023908     0.00015072     0.00016115
H         0.98371944     1.66247415     2.92905852    -0.00118577     0.00000594    -0.00021046
H         0.94533537     2.90465884     1.48297423     0.00099875    -0.00011324    -0.00043902
H         3.46081452     2.47226158     1.49428945    -0.00039620    -0.00093500    -0.00095517
H         3.16590984     1.41647391     2.84092781     0.00071838    -0.00039326    -0.00129741
     6
  Step:     6            Position(A)                                  Velocity(au)
C         1.51140311     2.28114697     2.19971637    -0.00035342    -0.00004582     0.00005790
N         2.79524828     2.16360370     2.21801515     0.00029370     0.00014682     0.00016631
H         0.98043470     1.66244255     2.92848952    -0.00121539    -0.00002849    -0.00020636
H         0.94809087     2.90433736     1.48172801     0.00101591    -0.00012157    -0.00047269
H         3.45971456     2.46970164     1.49161592    -0.00040841    -0.00093720    -0.00099994
H         3.16788295     1.41538519     2.83735476     0.00072470    -0.00040371    -0.00131500
     6
  Step:     7            Position(A)                                  Velocity(au)
C         1.51035217     2.28103412     2.19987707    -0.00041476    -0.00003682     0.00005969
N         2.79612564     2.16399995     2.21847695     0.00034755     0.00014306     0.00017138
H         0.97707222     1.66231831     2.92792991    -0.00124261    -0.00006175    -0.00020363
H         0.95089162     2.90399394     1.48038896     0.00103180    -0.00012928    -0.00050691
H         3.45858083     2.46713584     1.48882054    -0.00042089    -0.00093929    -0.00104425
H         3.16987338     1.41426591     2.83373579     0.00073108    -0.00041563    -0.00133096
     6
  Step:     8            Position(A)                                  Velocity(au)
C         1.50913470     2.28094558     2.20004280    -0.00047514    -0.00002805     0.00006158
N         2.79714912     2.16438613     2.21895247     0.00040051     0.00013946     0.00017634
H         0.97363860     1.66210481     2.92737583    -0.00126740    -0.00009374    -0.00020235
H         0.95373404     2.90363029     1.47895560     0.00104636    -0.00013635    -0.00054167
H         3.45741265     2.46456445     1.48590469    -0.00043360    -0.00094129    -0.00108801
H         3.17188140     1.41311198     2.83007542     0.00073759    -0.00042908    -0.00134526
     6
  Step:     9            Position(A)                                  Velocity(au)
C         1.50775352     2.28088070     2.20021386    -0.00053443    -0.00001952     0.00006359
N         2.79831613     2.16476269     2.21944141     0.00045246     0.00013603     0.00018119
H         0.97014051     1.66180565     2.92682322    -0.00128976    -0.00012437    -0.00020257
H         0.95661441     2.90324819     1.47742642     0.00105952    -0.00014278    -0.00057699
H         3.45620939     2.46198773     1.48286995    -0.00044652    -0.00094319    -0.00113116
H         3.17390744     1.41191916     2.82637826     0.00074429    -0.00044411    -0.00135786
     6
  Step:    10            Position(A)                                  Velocity(au)
C         1.50621179     2.28083880     2.20039058    -0.00059249    -0.00001125     0.00006572
N         2.79962374     2.16513013     2.21994344     0.00050329     0.00013279     0.00018591
H         0.96658459     1.66142458     2.92626794    -0.00130972    -0.00015362    -0.00020431
H         0.95952882     2.90284942     1.47579990     0.00107123    -0.00014853    -0.00061287
H         3.45497051     2.45940592     1.47971811    -0.00045965    -0.00094501    -0.00117362
H         3.17595207     1.41068307     2.82264899     0.00075122    -0.00046075    -0.00136873
     6
  Step:    11            Position(A)                                  Velocity(au)
C         1.50451303     2.28081915     2.20057328    -0.00064922    -0.00000326     0.00006797
N         2.80106875     2.16548895     2.22045820     0.00055290     0.00012974     0.00019049
H         0.96297734     1.66096549     2.92570583    -0.00132735    -0.00018143    -0.00020756
H         0.96247320     2.90243583     1.47407449     0.00108143    -0.00015361    -0.00064931
H         3.45369548     2.45681927     1.47645118    -0.00047295    -0.00094674    -0.00121530
H         3.17801603     1.40939923     2.81889234     0.00075844    -0.00047904    -0.00137788
     6
  Step:    12            Position(A)                                  Velocity(au)
C         1.50266108     2.28082098     2.20076233    -0.00070448     0.00000446     0.00007036
N         2.80264770     2.16583971     2.22098528     0.00060120     0.00012690     0.00019492
H         0.95932503     1.66043228     2.92513276    -0.00134274    -0.00020782    -0.00021230
H         0.96544340     2.90200930     1.47224865     0.00109009    -0.00015800    -0.00068633
H         3.45238381     2.45422799     1.47307137    -0.00048644    -0.00094839    -0.00125613
H         3.18010015     1.40806309     2.81511307     0.00076598    -0.00049900    -0.00138528
     6
  Step:    13            Position(A)                                  Velocity(au)
C         1.50066007     2.28084352     2.20095809    -0.00075818     0.00001188     0.00007288
N         2.80435687     2.16618298     2.22152425     0.00064811     0.00012427     0.00019919
H         0.95563359     1.65982888     2.92454473    -0.00135604    -0.00023278    -0.00021847
H         0.96843514     2.90157171     1.47032080     0.00109717    -0.00016169    -0.00072392
H         3.45103505     2.45163231     1.46958112    -0.00050009    -0.00094997    -0.00129603
H         3.18220537     1.40667007     2.81131591     0.00077388    -0.00052064    -0.00139096
     6
  Step:    14            Position(A)                                  Velocity(au)
C         1.49851444     2.28088594     2.20116093    -0.00081021     0.00001900     0.00007554
N         2.80619236     2.16651936     2.22207467     0.00069355     0.00012186     0.00020328
H         0.95190856     1.65915913     2.92393790    -0.00136740    -0.00025636    -0.00022601
H         0.97144406     2.90112500     1.46828938     0.00110264    -0.00016467    -0.00076208
H         3.44964873     2.44903239     1.46598308    -0.00051390    -0.00095149    -0.00133493
H         3.18433268     1.40521560     2.80750558     0.00078215    -0.00054394    -0.00139493
     6
  Step:    15            Position(A)                                  Velocity(au)
C         1.49622886     2.28094741     2.20137123    -0.00086049     0.00002581     0.00007833
N         2.80815005     2.16684945     2.22263603     0.00073746     0.00011968     0.00020719
H         0.94815497     1.65842677     2.92330866    -0.00137702    -0.00027860    -0.00023482
H         0.97446575     2.90067108     1.46615284     0.00110651    -0.00016696    -0.00080080
H         3.44822441     2.44642842     1.46228010    -0.00052788    -0.00095295    -0.00137274
H         3.18648315     1.40369512     2.80368671     0.00079082    -0.00056890    -0.00139723
     6
  Step:    16            Position(A)                                  Velocity(au)
C         1.49380822     2.28102711     2.20158936    -0.00090894     0.00003232     0.00008127
N         2.81022571     2.16717391     2.22320783     0.00077980     0.00011774     0.00021090
H         0.94437731     1.65763538     2.92265363    -0.00138511    -0.00029957    -0.00024480
H         0.97749579     2.90021187     1.46390963     0.00110875    -0.00016855    -0.00084007
H         3.44676161     2.44382051     1.45847526    -0.00054204    -0.00095437    -0.00140938
H         3.18865786     1.40210417     2.79986382     0.00079988    -0.00059546    -0.00139789
     6
  Step:    17            Position(A)                                  Velocity(au)
C         1.49125765     2.28112418     2.20181569    -0.00095549     0.00003852     0.00008433
N         2.81241494     2.16749338     2.22378952     0.00082051     0.00011603     0.00021442
H         0.94057946     1.65678835     2.92196977    -0.00139189    -0.00031933    -0.00025586
H         0.98052974     2.89974923     1.46155828     0.00110937    -0.00016947    -0.00087988
H         3.44525986     2.44120876     1.45457186    -0.00055638    -0.00095576    -0.00144479
H         3.19085789     1.40043839     2.79604131     0.00080934    -0.00062360    -0.00139698
     6
  Step:    18            Position(A)                                  Velocity(au)
C         1.48858243     2.28123780     2.20205058    -0.00100008     0.00004442     0.00008752
N         2.81471324     2.16780851     2.22438053     0.00085956     0.00011457     0.00021772
H         0.93676474     1.65588887     2.92125430    -0.00139757    -0.00033797    -0.00026786
H         0.98356320     2.89928500     1.45909735     0.00110840    -0.00016974    -0.00092019
H         3.44371862     2.43859323     1.45057340    -0.00057092    -0.00095714    -0.00147887
H         3.19308432     1.39869357     2.79222340     0.00081918    -0.00065324    -0.00139456
     6
  Step:    19            Position(A)                                  Velocity(au)
C         1.48578800     2.28136712     2.20229438    -0.00104266     0.00005001     0.00009084
N         2.81711605     2.16811998     2.22498030     0.00089692     0.00011335     0.00022081
H         0.93293583     1.65493991     2.92050477    -0.00140236    -0.00035557    -0.00028071
H         0.98659181     2.89882090     1.45652554     0.00110584    -0.00016939    -0.00096097
H         3.44213735     2.43597393     1.44648359    -0.00058567    -0.00095853    -0.00151155
H         3.19533817     1.39686570     2.78841411     0.00082938    -0.00068430    -0.00139072
     6
  Step:    20            Position(A)                                  Velocity(au)
C         1.48287991     2.28151133     2.20254742    -0.00043581     0.00002225     0.00003793
N         2.81961872     2.16842843     2.22558821     0.00037521     0.00004521     0.00009000
H         0.92909491     1.65394419     2.91971902    -0.00056586    -0.00014975    -0.00011841
H         0.98961131     2.89835857     1.45384161     0.00044327    -0.00006778    -0.00040320
H         3.44051548     2.43335081     1.44230636    -0.00024165    -0.00038622    -0.00062071
H         3.19762038     1.39495098     2.78461725     0.00033793    -0.00028835    -0.00055745
     6
  Step:    21            Position(A)                                  Velocity(au)
C         1.48163413     2.28157924     2.20265592    -0.00047488     0.00002735     0.00004144
N         2.82069239     2.16855088     2.22583809     0.00040967     0.00004439     0.00009271
H         0.92754236     1.65351257     2.91937616    -0.00056953    -0.00016575    -0.00013247
H         0.99081683     2.89817485     1.45268242     0.00043811    -0.00006649    -0.00044464
H         3.43983403     2.43229268     1.44056732    -0.00025677    -0.00038767    -0.00065084
H         3.19855909     1.39411728     2.78310081     0.00034867    -0.00032161    -0.00055139
     6
  Step:    22            Position(A)                                  Velocity(au)
C         1.48028266     2.28166094     2.20277407    -0.00051307     0.00003234     0.00004499
N         2.82185932     2.16867123     2.22609527     0.00044339     0.00004367     0.00009534
H         0.92598003     1.65303766     2.91899453    -0.00057304    -0.00018142    -0.00014674
H         0.99200743     2.89799490     1.45140979     0.00043237    -0.00006505    -0.00048614
H         3.43911114     2.43123056     1.43874674    -0.00027195    -0.00038914    -0.00068033
H         3.19952732     1.39319204     2.78160157     0.00035950    -0.00035525    -0.00054492
     6
  Step:    23            Position(A)                                  Velocity(au)
C         1.47882804     2.28175611     2.20290197    -0.00055030     0.00003722     0.00004856
N         2.82311741     2.16878972     2.22635952     0.00047633     0.00004303     0.00009788
H         0.92440828     1.65252032     2.91857360    -0.00057644    -0.00019680    -0.00016119
H         0.99318156     2.89781905     1.45002363     0.00042607    -0.00006353    -0.00052762
H         3.43834667     2.43016437     1.43684642    -0.00028717    -0.00039066    -0.00070915
H         3.20052526     1.39217434     2.78012053     0.00037038    -0.00038917    -0.00053812
     6
  Step:    24            Position(A)                                  Velocity(au)
C         1.47727295     2.28186447     2.20303967    -0.00058652     0.00004199     0.00005215
N         2.82446447     2.16890659     2.22663062     0.00050844     0.00004248     0.00010035
H         0.92282734     1.65196132     2.91811296    -0.00057980    -0.00021191    -0.00017576
H         0.99433773     2.89764746     1.44852412     0.00041926    -0.00006197    -0.00056900
H         3.43754056     2.42909398     1.43486822    -0.00030239    -0.00039222    -0.00073728
H         3.20155302     1.39106360     2.77865849     0.00038129    -0.00042324    -0.00053107
     6
  Step:    25            Position(A)                                  Velocity(au)
C         1.47562021     2.28198574     2.20318721    -0.00062170     0.00004665     0.00005575
N         2.82589816     2.16902207     2.22690835     0.00053967     0.00004201     0.00010274
H         0.92123725     1.65136134     2.91761233    -0.00058315    -0.00022678    -0.00019042
H         0.99547456     2.89748013     1.44691166     0.00041195    -0.00006045    -0.00061019
H         3.43669283     2.42801924     1.43281406    -0.00031760    -0.00039384    -0.00076470
H         3.20261061     1.38985956     2.77721597     0.00039217    -0.00045734    -0.00052388
     6
  Step:    26            Position(A)                                  Velocity(au)
C         1.47387275     2.28211963     2.20334460    -0.00065577     0.00005123     0.00005935
N         2.82741606     2.16913636     2.22719250     0.00057000     0.00004161     0.00010505
H         0.91963797     1.65072098     2.91707151    -0.00058653    -0.00024145    -0.00020513
H         0.99659076     2.89731686     1.44518687     0.00040418    -0.00005903    -0.00065110
H         3.43580356     2.42693999     1.43068591    -0.00033276    -0.00039553    -0.00079138
H         3.20369791     1.38856229     2.77579324     0.00040300    -0.00049136    -0.00051664
     6
  Step:    27            Position(A)                                  Velocity(au)
C         1.47203366     2.28226591     2.20351183    -0.00068870     0.00005571     0.00006294
N         2.82901564     2.16924966     2.22748289     0.00059940     0.00004128     0.00010730
H         0.91802937     1.65004078     2.91649043    -0.00058998    -0.00025594    -0.00021985
H         0.99768510     2.89715730     1.44335065     0.00039599    -0.00005777    -0.00069164
H         3.43487291     2.42585601     1.42848581    -0.00034785    -0.00039730    -0.00081732
H         3.20481471     1.38717220     2.77439035     0.00041373    -0.00052517    -0.00050943
     6
  Step:    28            Position(A)                                  Velocity(au)
C         1.47010608     2.28242431     2.20368885    -0.00072046     0.00006010     0.00006651
N         2.83069430     2.16936214     2.22777933     0.00062782     0.00004101     0.00010948
H         0.91641126     1.64932117     2.91586911    -0.00059351    -0.00027029    -0.00023454
H         0.99875650     2.89700088     1.44140412     0.00038741    -0.00005676    -0.00073173
H         3.43390107     2.42476707     1.42621583    -0.00036286    -0.00039917    -0.00084248
H         3.20596069     1.38569004     2.77300705     0.00042431    -0.00055863    -0.00050235
     6
  Step:    29            Position(A)                                  Velocity(au)
C         1.46809327     2.28259463     2.20387560    -0.00075102     0.00006442     0.00007005
N         2.83244934     2.16947398     2.22808165     0.00065525     0.00004080     0.00011160
H         0.91478332     1.64856251     2.91520767    -0.00059718    -0.00028452    -0.00024917
H         0.99980395     2.89684688     1.43934865     0.00037849    -0.00005605    -0.00077127
H         3.43288833     2.42367287     1.42387812    -0.00037776    -0.00040115    -0.00086684
H         3.20713538     1.38411692     2.77164285     0.00043471    -0.00059163    -0.00049550
     6
  Step:    30            Position(A)                                  Velocity(au)
C         1.46599858     2.28277666     2.20407198    -0.00078035     0.00006867     0.00007355
N         2.83427803     2.16958530     2.22838970     0.00068167     0.00004064     0.00011367
H         0.91314512     1.64776505     2.91450636    -0.00060103    -0.00029868    -0.00026368
H         1.00082656     2.89669436     1.43718587     0.00036926    -0.00005570    -0.00081016
H         3.43183500     2.42257311     1.42147487    -0.00039254    -0.00040325    -0.00089040
H         3.20833822     1.38245428     2.77029703     0.00044488    -0.00062404    -0.00048896
     6
  Step:    31            Position(A)                                  Velocity(au)
C         1.46382538     2.28297021     2.20427787    -0.00080842     0.00007285     0.00007700
N         2.83617757     2.16969623     2.22870334     0.00070707     0.00004051     0.00011569
H         0.91149612     1.64692895     2.91376553    -0.00060511    -0.00031280    -0.00027805
H         1.00182354     2.89654221     1.43491768     0.00035977    -0.00005580    -0.00084832
H         3.43074145     2.42146742     1.41900834    -0.00040718    -0.00040549    -0.00091312
H         3.20956853     1.38070392     2.76896860     0.00045477    -0.00065572    -0.00048283
     6
  Step:    32            Position(A)                                  Velocity(au)
C         1.46157712     2.28317512     2.20449310    -0.00083524     0.00007698     0.00008038
N         2.83814514     2.16980688     2.22902243     0.00073143     0.00004043     0.00011766
H         0.90983565     1.64605426     2.91298564    -0.00060944    -0.00032692    -0.00029223
H         1.00279422     2.89638915     1.43254620     0.00035005    -0.00005641    -0.00088566
H         3.42960807     2.42035541     1.41648083    -0.00042166    -0.00040788    -0.00093498
H         3.21082549     1.37886798     2.76765632     0.00046435    -0.00068657    -0.00047719
     6
  Step:    33            Position(A)                                  Velocity(au)
C         1.45925726     2.28339124     2.20471750    -0.00086078     0.00008106     0.00008370
N         2.84017790     2.16991733     2.22934684     0.00075474     0.00004037     0.00011959
H         0.90816294     1.64514093     2.91216725    -0.00061408    -0.00034107    -0.00030619
H         1.00373804     2.89623368     1.43007381     0.00034014    -0.00005759    -0.00092208
H         3.42843530     2.41923664     1.41389470    -0.00043598    -0.00041044    -0.00095597
H         3.21210818     1.37694891     2.76635873     0.00047357    -0.00071646    -0.00047213
     6
  Step:    34            Position(A)                                  Velocity(au)
C         1.45686930     2.28361846     2.20495087    -0.00088505     0.00008510     0.00008693
N         2.84227300     2.17002766     2.22967648     0.00077702     0.00004033     0.00012148
H         0.90647713     1.64418885     2.91131103    -0.00061904    -0.00035529    -0.00031989
H         1.00465455     2.89607416     1.42750315     0.00033009    -0.00005941    -0.00095749
H         3.42722360     2.41811063     1.41125239    -0.00045012    -0.00041318    -0.00097607
H         3.21341557     1.37494950     2.76507415     0.00048240    -0.00074527    -0.00046772
     6
  Step:    35            Position(A)                                  Velocity(au)
C         1.45441671     2.28385667     2.20519296    -0.00090805     0.00008911     0.00009008
N         2.84442758     2.17013790     2.23001122     0.00079825     0.00004030     0.00012333
H         0.90477726     1.64319777     2.91041770    -0.00062437    -0.00036960    -0.00033331
H         1.00554339     2.89590874     1.42483710     0.00031993    -0.00006193    -0.00099180
H         3.42597347     2.41697684     1.40855638    -0.00046409    -0.00041613    -0.00099524
H         3.21474652     1.37287285     2.76380066     0.00049079    -0.00077290    -0.00046405
     6
  Step:    36            Position(A)                                  Velocity(au)
C         1.45190298     2.28410580     2.20544353    -0.00167550     0.00016775     0.00016781
N         2.84663881     2.17024809     2.23035100     0.00147489     0.00007260     0.00022553
H         0.90306230     1.64216740     2.90948810    -0.00113545    -0.00069206    -0.00062424
H         1.00640432     2.89573543     1.42207877     0.00055809    -0.00011752    -0.00184697
H         3.42468540     2.41583472     1.40580921    -0.00086113    -0.00075558    -0.00182631
H         3.21609979     1.37072234     2.76253616     0.00089868    -0.00144025    -0.00083107
     6
  Step:    37            Position(A)                                  Velocity(au)
C         1.44735379     2.28456243     2.20590402    -0.00165067     0.00016621     0.00016897
N         2.85065532     2.17044863     2.23096737     0.00146186     0.00007408     0.00022526
H         0.89986259     1.64023643     2.90781901    -0.00120492    -0.00072050    -0.00059642
H         1.00783410     2.89547064     1.41696372     0.00048797    -0.00007676    -0.00189355
H         3.42233312     2.41377637     1.40079708    -0.00085917    -0.00075014    -0.00183881
H         3.21858932     1.36675502     2.76029368     0.00092152    -0.00146019    -0.00080987
     6
  Step:    38            Position(A)                                  Velocity(au)
C         1.44287510     2.28501483     2.20636767    -0.00162404     0.00016466     0.00017011
N         2.85463404     2.17065324     2.23158298     0.00144732     0.00007557     0.00022497
H         0.89647231     1.63822681     2.90622616    -0.00127472    -0.00074946    -0.00056862
H         1.00907316     2.89531564     1.41172252     0.00041873    -0.00003739    -0.00193902
H         3.41998638     2.41173205     1.39575236    -0.00085716    -0.00074536    -0.00185004
H         3.22113981     1.36273624     2.75810681     0.00094321    -0.00147777    -0.00079047
     6
  Step:    39            Position(A)                                  Velocity(au)
C         1.43847157     2.28546302     2.20683439    -0.00159579     0.00016314     0.00017121
N         2.85857105     2.17086196     2.23219776     0.00143142     0.00007707     0.00022465
H         0.89289084     1.63613744     2.90470911    -0.00134463    -0.00077872    -0.00054112
H         1.01012426     2.89526617     1.40635876     0.00035063     0.00000028    -0.00198297
H         3.41764513     2.40969985     1.39067879    -0.00085523    -0.00074130    -0.00185980
H         3.22374796     1.35867274     2.75597044     0.00096364    -0.00149279    -0.00077298
     6
  Step:    40            Position(A)                                  Velocity(au)
C         1.43414734     2.28590706     2.20730406    -0.00045307     0.00004676     0.00004983
N         2.86246282     2.17107475     2.23281164     0.00040915     0.00002272     0.00006489
H         0.88911824     1.63396784     2.90326667    -0.00040917    -0.00023375    -0.00014875
H         1.01099084     2.89531716     1.40087721     0.00008213     0.00001040    -0.00058581
H         3.41530895     2.40767768     1.38558070    -0.00024692    -0.00021351    -0.00054036
H         3.22641018     1.35457182     2.75387919     0.00028429    -0.00043540    -0.00021915
     6
  Step:    41            Position(A)                                  Velocity(au)
C         1.43294987     2.28603290     2.20744173    -0.00042256     0.00004529     0.00005085
N         2.86355749     2.17113889     2.23298858     0.00039130     0.00002417     0.00006452
H         0.88790411     1.63328860     2.90289623    -0.00047869    -0.00026293    -0.00012236
H         1.01112520     2.89539292     1.39921926     0.00001642     0.00004462    -0.00062633
H         3.41463588     2.40709769     1.38409319    -0.00024541    -0.00021080    -0.00054725
H         3.22721271     1.35336637     2.75329964     0.00030242    -0.00044575    -0.00020504
     6
  Step:    42            Position(A)                                  Velocity(au)
C         1.43183629     2.28615474     2.20758214    -0.00039174     0.00004383     0.00005183
N         2.86460295     2.17120696     2.23316451     0.00037318     0.00002560     0.00006414
H         0.88650017     1.63252983     2.90259746    -0.00054787    -0.00029181    -0.00009646
H         1.01108062     2.89556119     1.39745166    -0.00004865     0.00007794    -0.00066585
H         3.41396673     2.40652478     1.38258765    -0.00024408    -0.00020834    -0.00055350
H         3.22806418     1.35213388     2.75275776     0.00032004    -0.00045510    -0.00019164
     6
  Step:    43            Position(A)                                  Velocity(au)
C         1.43080734     2.28627260     2.20772522    -0.00036070     0.00004238     0.00005279
N         2.86559849     2.17127890     2.23333937     0.00035481     0.00002700     0.00006374
H         0.88490767     1.63169266     2.90236866    -0.00061649    -0.00032015    -0.00007131
H         1.01085913     2.89581920     1.39557756    -0.00011287     0.00011014    -0.00070407
H         3.41330094     2.40595821     1.38106597    -0.00024299    -0.00020617    -0.00055901
H         3.22896308     1.35087732     2.75225152     0.00033707    -0.00046329    -0.00017902
     6
  Step:    44            Position(A)                                  Velocity(au)
C         1.42986356     2.28638653     2.20787087    -0.00032947     0.00004096     0.00005372
N         2.86654349     2.17135460     2.23351314     0.00033623     0.00002834     0.00006334
H         0.88312845     1.63077885     2.90220745    -0.00068433    -0.00034774    -0.00004714
H         1.01046328     2.89616357     1.39360093    -0.00017608     0.00014099    -0.00074068
H         3.41263778     2.40539718     1.37953028    -0.00024219    -0.00020429    -0.00056370
H         3.22990768     1.34960006     2.75177864     0.00035343    -0.00047017    -0.00016727
     6