 Entering Gaussian System, Link 0=/opt/gaussian/g09/g09
 Initial command:
 /opt/gaussian/g09/l1.exe ./Gau-98117.inp -scrdir=./
 Entering Link 1 = /opt/gaussian/g09/l1.exe PID=     98118.
  
 Copyright (c) 1988,1990,1992,1993,1995,1998,2003,2009, Gaussian, Inc.
                  All Rights Reserved.
  
 This is part of the Gaussian(R) 09 program.  It is based on
 the Gaussian(R) 03 system (copyright 2003, Gaussian, Inc.),
 the Gaussian(R) 98 system (copyright 1998, Gaussian, Inc.),
 the Gaussian(R) 94 system (copyright 1995, Gaussian, Inc.),
 the Gaussian 92(TM) system (copyright 1992, Gaussian, Inc.),
 the Gaussian 90(TM) system (copyright 1990, Gaussian, Inc.),
 the Gaussian 88(TM) system (copyright 1988, Gaussian, Inc.),
 the Gaussian 86(TM) system (copyright 1986, Carnegie Mellon
 University), and the Gaussian 82(TM) system (copyright 1983,
 Carnegie Mellon University). Gaussian is a federally registered
 trademark of Gaussian, Inc.
  
 This software contains proprietary and confidential information,
 including trade secrets, belonging to Gaussian, Inc.
  
 This software is provided under written license and may be
 used, copied, transmitted, or stored only in accord with that
 written license.
  
 The following legend is applicable only to US Government
 contracts under FAR:
  
                    RESTRICTED RIGHTS LEGEND
  
 Use, reproduction and disclosure by the US Government is
 subject to restrictions as set forth in subparagraphs (a)
 and (c) of the Commercial Computer Software - Restricted
 Rights clause in FAR 52.227-19.
  
 Gaussian, Inc.
 340 Quinnipiac St., Bldg. 40, Wallingford CT 06492
  
  
 ---------------------------------------------------------------
 Warning -- This program may not be used in any manner that
 competes with the business of Gaussian, Inc. or will provide
 assistance to any competitor of Gaussian, Inc.  The licensee
 of this program is prohibited from giving any competitor of
 Gaussian, Inc. access to this program.  By using this program,
 the user acknowledges that Gaussian, Inc. is engaged in the
 business of creating and licensing software in the field of
 computational chemistry and represents and warrants to the
 licensee that it is not a competitor of Gaussian, Inc. and that
 it will not use this program in any manner prohibited above.
 ---------------------------------------------------------------
  

 Cite this work as:
 Gaussian 09, Revision A.02,
 M. J. Frisch, G. W. Trucks, H. B. Schlegel, G. E. Scuseria, 
 M. A. Robb, J. R. Cheeseman, G. Scalmani, V. Barone, B. Mennucci, 
 G. A. Petersson, H. Nakatsuji, M. Caricato, X. Li, H. P. Hratchian, 
 A. F. Izmaylov, J. Bloino, G. Zheng, J. L. Sonnenberg, M. Hada, 
 M. Ehara, K. Toyota, R. Fukuda, J. Hasegawa, M. Ishida, T. Nakajima, 
 Y. Honda, O. Kitao, H. Nakai, T. Vreven, J. A. Montgomery, Jr., 
 J. E. Peralta, F. Ogliaro, M. Bearpark, J. J. Heyd, E. Brothers, 
 K. N. Kudin, V. N. Staroverov, R. Kobayashi, J. Normand, 
 K. Raghavachari, A. Rendell, J. C. Burant, S. S. Iyengar, J. Tomasi, 
 M. Cossi, N. Rega, J. M. Millam, M. Klene, J. E. Knox, J. B. Cross, 
 V. Bakken, C. Adamo, J. Jaramillo, R. Gomperts, R. E. Stratmann, 
 O. Yazyev, A. J. Austin, R. Cammi, C. Pomelli, J. W. Ochterski, 
 R. L. Martin, K. Morokuma, V. G. Zakrzewski, G. A. Voth, 
 P. Salvador, J. J. Dannenberg, S. Dapprich, A. D. Daniels, 
 O. Farkas, J. B. Foresman, J. V. Ortiz, J. Cioslowski, 
 and D. J. Fox, Gaussian, Inc., Wallingford CT, 2009.
 
 ******************************************
 Gaussian 09:  EM64L-G09RevA.02 11-Jun-2009
                22-Oct-2019 
 ******************************************
 %nproc=1
 Will use up to    1 processors via shared memory.
 %mem=4gb
 %chk=g999.chk
 -------------------
 # B3LYP/6-31G force
 -------------------
 1/10=7,30=1,38=1/1,3;
 2/12=2,17=6,18=5,40=1/2;
 3/5=1,6=6,11=2,16=1,25=1,30=1,71=1,74=-5/1,2,3;
 4//1;
 5/5=2,38=5/2;
 6/7=2,8=2,9=2,10=2,28=1/1;
 7/29=1/1,2,3,16;
 1/10=7,30=1/3;
 99//99;
 ---------
 g09 input
 ---------
 Symbolic Z-matrix:
 Charge =  0 Multiplicity = 1
 C                    -0.68994   0.00428  -0.0601 
 C                     0.64884  -0.01867  -0.05058 
 H                    -1.15049   0.98832  -0.11046 
 H                    -1.26876  -0.88144   0.1259 
 H                     1.08165   0.95819  -0.10454 
 H                     1.26983  -0.86356   0.10668 
 

 GradGradGradGradGradGradGradGradGradGradGradGradGradGradGradGradGradGrad
 Berny optimization.
 Initialization pass.
 Trust Radius=3.00D-01 FncErr=1.00D-07 GrdErr=1.00D-07
 Number of steps in this run=   2 maximum allowed number of steps=   2.
 GradGradGradGradGradGradGradGradGradGradGradGradGradGradGradGradGradGrad

                          Input orientation:                          
 ---------------------------------------------------------------------
 Center     Atomic      Atomic             Coordinates (Angstroms)
 Number     Number       Type             X           Y           Z
 ---------------------------------------------------------------------
      1          6           0       -0.689938    0.004279   -0.060097
      2          6           0        0.648842   -0.018672   -0.050578
      3          1           0       -1.150489    0.988321   -0.110458
      4          1           0       -1.268759   -0.881438    0.125898
      5          1           0        1.081645    0.958186   -0.104540
      6          1           0        1.269828   -0.863558    0.106680
 ---------------------------------------------------------------------
                    Distance matrix (angstroms):
                    1          2          3          4          5
     1  C    0.000000
     2  C    1.339010   0.000000
     3  H    1.087650   2.062816   0.000000
     4  H    1.074301   2.110143   1.888347   0.000000
     5  H    2.012566   1.069804   2.232345   2.993613   0.000000
     6  H    2.149800   1.060277   3.055248   2.538723   1.843577
                    6
     6  H    0.000000
 Stoichiometry    C2H4
 Framework group  C1[X(C2H4)]
 Deg. of freedom    12
 Full point group                 C1      NOp   1
 Largest Abelian subgroup         C1      NOp   1
 Largest concise Abelian subgroup C1      NOp   1
                         Standard orientation:                         
 ---------------------------------------------------------------------
 Center     Atomic      Atomic             Coordinates (Angstroms)
 Number     Number       Type             X           Y           Z
 ---------------------------------------------------------------------
      1          6           0       -0.670129   -0.015449   -0.019351
      2          6           0        0.668857   -0.009658   -0.013694
      3          1           0       -1.152320    0.957227    0.046803
      4          1           0       -1.228747   -0.929514    0.061606
      5          1           0        1.079945    0.976124    0.047309
      6          1           0        1.308757   -0.853193    0.042550
 ---------------------------------------------------------------------
 Rotational constants (GHZ):    144.1177544     30.5654077     25.2561135
 Standard basis: 6-31G (6D, 7F)
 There are    26 symmetry adapted basis functions of A   symmetry.
 Integral buffers will be    131072 words long.
 Raffenetti 2 integral format.
 Two-electron integral symmetry is turned on.
    26 basis functions,    60 primitive gaussians,    26 cartesian basis functions
     8 alpha electrons        8 beta electrons
       nuclear repulsion energy        33.5254471079 Hartrees.
 NAtoms=    6 NActive=    6 NUniq=    6 SFac= 7.50D-01 NAtFMM=   80 NAOKFM=F Big=F
 One-electron integrals computed using PRISM.
 NBasis=    26 RedAO= T  NBF=    26
 NBsUse=    26 1.00D-06 NBFU=    26
 Harris functional with IExCor=  402 diagonalized for initial guess.
 ExpMin= 1.61D-01 ExpMax= 3.05D+03 ExpMxC= 4.57D+02 IAcc=1 IRadAn=         1 AccDes= 0.00D+00
 HarFok:  IExCor=  402 AccDes= 0.00D+00 IRadAn=         1 IDoV= 1
 ScaDFX=  1.000000  1.000000  1.000000  1.000000
 FoFCou: FMM=F IPFlag=           0 FMFlag=      100000 FMFlg1=           0
         NFxFlg=           0 DoJE=T BraDBF=F KetDBF=T FulRan=T
         Omega=  0.000000  0.000000  1.000000  0.000000  0.000000 ICntrl=     500 IOpCl=  0
         NMat0=    1 NMatS0=    1 NMatT0=    0 NMatD0=    1 NMtDS0=    0 NMtDT0=    0
         I1Cent=           4 NGrid=           0.
 Petite list used in FoFCou.
 Initial guess orbital symmetries:
       Occupied  (A) (A) (A) (A) (A) (A) (A) (A)
       Virtual   (A) (A) (A) (A) (A) (A) (A) (A) (A) (A) (A) (A)
                 (A) (A) (A) (A) (A) (A)
 The electronic state of the initial guess is 1-A.
 Requested convergence on RMS density matrix=1.00D-08 within 128 cycles.
 Requested convergence on MAX density matrix=1.00D-06.
 Requested convergence on             energy=1.00D-06.
 No special actions if energy rises.
 Keep R1 ints in memory in canonical form, NReq=990134.
 Integral accuracy reduced to 1.0D-05 until final iterations.
 Initial convergence to 1.0D-05 achieved.  Increase integral accuracy.
 SCF Done:  E(RB3LYP) =  -78.5666485882     A.U. after   11 cycles
             Convg  =    0.6316D-08             -V/T =  2.0052

 **********************************************************************

            Population analysis using the SCF density.

 **********************************************************************

 Orbital symmetries:
       Occupied  (A) (A) (A) (A) (A) (A) (A) (A)
       Virtual   (A) (A) (A) (A) (A) (A) (A) (A) (A) (A) (A) (A)
                 (A) (A) (A) (A) (A) (A)
 The electronic state is 1-A.
 Alpha  occ. eigenvalues --  -10.17857 -10.17509  -0.76240  -0.57754  -0.47890
 Alpha  occ. eigenvalues --   -0.41078  -0.35863  -0.26752
 Alpha virt. eigenvalues --    0.01545   0.11624   0.14846   0.16585   0.24551
 Alpha virt. eigenvalues --    0.32264   0.49078   0.55520   0.59976   0.63699
 Alpha virt. eigenvalues --    0.69642   0.73051   0.87813   0.91891   0.96058
 Alpha virt. eigenvalues --    0.97936   1.12923   1.28998
          Condensed to atoms (all electrons):
              1          2          3          4          5          6
     1  C    4.931743   0.643357   0.382160   0.381573  -0.045495  -0.034708
     2  C    0.643357   4.925634  -0.040979  -0.041136   0.384442   0.381633
     3  H    0.382160  -0.040979   0.576942  -0.036689  -0.013592   0.005224
     4  H    0.381573  -0.041136  -0.036689   0.568722   0.006099  -0.007188
     5  H   -0.045495   0.384442  -0.013592   0.006099   0.586043  -0.039762
     6  H   -0.034708   0.381633   0.005224  -0.007188  -0.039762   0.561039
 Mulliken atomic charges:
              1
     1  C   -0.258631
     2  C   -0.252951
     3  H    0.126933
     4  H    0.128619
     5  H    0.122266
     6  H    0.133764
 Sum of Mulliken atomic charges =   0.00000
 Mulliken charges with hydrogens summed into heavy atoms:
              1
     1  C   -0.003078
     2  C    0.003078
 Sum of Mulliken charges with hydrogens summed into heavy atoms =   0.00000
 Electronic spatial extent (au):  <R**2>=             81.3305
 Charge=              0.0000 electrons
 Dipole moment (field-independent basis, Debye):
    X=              0.0280    Y=              0.0243    Z=              0.2049  Tot=              0.2083
 Quadrupole moment (field-independent basis, Debye-Ang):
   XX=            -12.3771   YY=            -11.9844   ZZ=            -15.0391
   XY=             -0.1389   XZ=             -0.0258   YZ=              0.0019
 Traceless Quadrupole moment (field-independent basis, Debye-Ang):
   XX=              0.7564   YY=              1.1491   ZZ=             -1.9056
   XY=             -0.1389   XZ=             -0.0258   YZ=              0.0019
 Octapole moment (field-independent basis, Debye-Ang**2):
  XXX=              0.3338  YYY=              0.2201  ZZZ=              0.2602  XYY=             -0.0879
  XXY=             -0.5695  XXZ=              0.3893  XZZ=              0.0474  YZZ=             -0.0029
  YYZ=              0.2465  XYZ=              0.0226
 Hexadecapole moment (field-independent basis, Debye-Ang**3):
 XXXX=            -65.7777 YYYY=            -25.8996 ZZZZ=            -15.6351 XXXY=             -0.6453
 XXXZ=             -0.0512 YYYX=             -0.0782 YYYZ=              0.0121 ZZZX=             -0.0185
 ZZZY=             -0.0006 XXYY=            -13.3337 XXZZ=            -14.3083 YYZZ=             -7.4765
 XXYZ=             -0.0444 YYXZ=             -0.0387 ZZXY=             -0.0298
 N-N= 3.352544710790D+01 E-N=-2.487508520703D+02  KE= 7.815892581055D+01
 Calling FoFJK, ICntrl=      2127 FMM=F ISym2X=0 I1Cent= 0 IOpClX= 0 NMat=1 NMatS=1 NMatT=0.
 ***** Axes restored to original set *****
 -------------------------------------------------------------------
 Center     Atomic                   Forces (Hartrees/Bohr)
 Number     Number              X              Y              Z
 -------------------------------------------------------------------
      1        6           0.014446520    0.000849495    0.008844317
      2        6          -0.022438968    0.018154475    0.002575043
      3        1          -0.009647458   -0.006196068   -0.003052356
      4        1          -0.010305270   -0.003916747   -0.003842125
      5        1           0.019159281    0.006355856   -0.004022938
      6        1           0.008785895   -0.015247010   -0.000501941
 -------------------------------------------------------------------
 Cartesian Forces:  Max     0.022438968 RMS     0.010898588

 GradGradGradGradGradGradGradGradGradGradGradGradGradGradGradGradGradGrad
 Berny optimization.
 Search for a local minimum.
 Step number   1 out of a maximum of    2
 All quantities printed in internal units (Hartrees-Bohrs-Radians)
 Second derivative matrix not updated -- first step.
 The second derivative matrix:
                          X1        Y1        Z1        X2        Y2
           X1           0.91650
           Y1           0.01094   0.71471
           Z1          -0.02830  -0.06708   0.17856
           X2          -0.57408   0.01109   0.00042   0.94166
           Y2           0.00527  -0.15984   0.00839  -0.03528   0.73862
           Z2          -0.00854   0.00811  -0.09151   0.03203  -0.06284
           X3          -0.15341   0.09698   0.00123   0.00048   0.02790
           Y3           0.09262  -0.30493   0.01591   0.00022   0.01300
           Z3           0.00411   0.01051  -0.05123  -0.00010  -0.00112
           X4          -0.18898  -0.11550   0.03060  -0.00048  -0.02561
           Y4          -0.10936  -0.28133   0.04256   0.00029   0.01699
           Z4           0.03296   0.04816  -0.06900  -0.00012   0.00121
           X5          -0.00050  -0.02859   0.00120  -0.15434  -0.10179
           Y5           0.00021   0.01257   0.00016  -0.09677  -0.32671
           Z5          -0.00012  -0.00176   0.01257  -0.00164   0.01347
           X6           0.00047   0.02508  -0.00514  -0.21324   0.12951
           Y6           0.00032   0.01882   0.00006   0.12045  -0.28207
           Z6          -0.00011   0.00206   0.02061  -0.03059   0.04089
                          Z2        X3        Y3        Z3        X4
           Z2           0.18556
           X3          -0.00090   0.12437
           Y3           0.00014  -0.10595   0.30045
           Z3           0.01092   0.00091  -0.01606   0.02880
           X4           0.00593   0.02856   0.01311  -0.00493   0.16091
           Y4           0.00031  -0.01892  -0.00858   0.00539   0.12800
           Z4           0.01990  -0.00123  -0.00005   0.01030  -0.03160
           X5           0.00052   0.00000   0.00000   0.00005   0.00000
           Y5           0.01744   0.00000  -0.00002  -0.00049   0.00000
           Z5          -0.05264   0.00005  -0.00040  -0.00839  -0.00003
           X6          -0.02904   0.00000   0.00000  -0.00004   0.00000
           Y6           0.03685  -0.00001   0.00008   0.00176   0.00001
           Z6          -0.07223  -0.00006   0.00046   0.00961   0.00003
                          Y4        Z4        X5        Y5        Z5
           Y4           0.27320
           Z4          -0.04798   0.04009
           X5          -0.00001  -0.00005   0.12601
           Y5           0.00011   0.00051   0.10911   0.32321
           Z5           0.00186   0.00877  -0.00215  -0.01803   0.02896
           X6           0.00001   0.00004   0.02883  -0.01256   0.00389
           Y6          -0.00039  -0.00184   0.02127  -0.00916   0.00486
           Z6          -0.00213  -0.01005   0.00043   0.00040   0.01073
                          X6        Y6        Z6
           X6           0.18394
           Y6          -0.14204   0.27271
           Z6           0.03029  -0.04168   0.04132
     Eigenvalues ---    0.03702   0.04483   0.08902   0.10964   0.13449
     Eigenvalues ---    0.19138   0.25725   0.31928   0.55851   0.78183
     Eigenvalues ---    1.05322   1.57587
 Quadratic step=3.489D-01 exceeds max=3.000D-01 adjusted using Lamda=-9.873D-03.
 Angle between NR and scaled steps=   3.06 degrees.
 Angle between quadratic step and forces=  52.63 degrees.
 Linear search not attempted -- first point.
 TrRot=  0.000378  0.014787  0.019781 -2.977703 -0.001119  2.979789
 Variable       Old X    -DE/DX   Delta X   Delta X   Delta X     New X
                                 (Linear)    (Quad)   (Total)
    X1       -1.30379   0.01445   0.00000  -0.00313  -0.00286  -1.30665
    Y1        0.00809   0.00085   0.00000   0.00921   0.02126   0.02935
    Z1       -0.11357   0.00884   0.00000   0.04906   0.07028  -0.04328
    X2        1.22613  -0.02244   0.00000   0.00409   0.00436   1.23050
    Y2       -0.03528   0.01815   0.00000   0.05166   0.06900   0.03372
    Z2       -0.09558   0.00258   0.00000   0.03294   0.05136  -0.04421
    X3       -2.17411  -0.00965   0.00000  -0.14431  -0.14796  -2.32207
    Y3        1.86766  -0.00620   0.00000  -0.06597  -0.05607   1.81159
    Z3       -0.20873  -0.00305   0.00000  -0.03824  -0.01623  -0.22496
    X4       -2.39761  -0.01031   0.00000  -0.02302  -0.01891  -2.41652
    Y4       -1.66568  -0.00392   0.00000  -0.02822  -0.01845  -1.68413
    Z4        0.23791  -0.00384   0.00000  -0.06646  -0.04370   0.19421
    X5        2.04401   0.01916   0.00000   0.20556   0.20188   2.24589
    Y5        1.81071   0.00636   0.00000  -0.00506   0.01437   1.82508
    Z5       -0.19755  -0.00402   0.00000  -0.06129  -0.04432  -0.24187
    X6        2.39963   0.00879   0.00000  -0.04057  -0.03651   2.36312
    Y6       -1.63189  -0.01525   0.00000  -0.04986  -0.03012  -1.66201
    Z6        0.20160  -0.00050   0.00000  -0.03488  -0.01740   0.18419
         Item               Value     Threshold  Converged?
 Maximum Force            0.022439     0.000450     NO 
 RMS     Force            0.010899     0.000300     NO 
 Maximum Displacement     0.201881     0.001800     NO 
 RMS     Displacement     0.069200     0.001200     NO 
 Predicted change in Energy=-4.655378D-03
 GradGradGradGradGradGradGradGradGradGradGradGradGradGradGradGradGradGrad

 1\1\GINC-THOR\Force\RB3LYP\6-31G\C2H4\ISLEE\22-Oct-2019\0\\# B3LYP/6-3
 1G force\\g09 input\\0,1\C,-0.68993816,0.00427852,-0.06009662\C,0.6488
 4174,-0.01867176,-0.05057789\H,-1.15048861,0.9883212,-0.11045763\H,-1.
 26875888,-0.88143841,0.12589805\H,1.0816451,0.95818585,-0.10453956\H,1
 .26982846,-0.86355771,0.10667971\\Version=EM64L-G09RevA.02\State=1-A\H
 F=-78.5666486\RMSD=6.316e-09\RMSF=1.090e-02\Dipole=0.0111564,0.0187318
 ,0.078979\Quadrupole=0.557984,0.8276922,-1.3856762,-0.0980886,-0.00600
 67,-0.2642012\PG=C01 [X(C2H4)]\\@


 FOR THE NATURE OF THE CHEMICAL BOND
 IS THE PROBLEM AT THE HEART OF ALL CHEMISTRY.

                     -- BRYCE CRAWFORD, JR., 1953
 Job cpu time:  0 days  0 hours  0 minutes  2.8 seconds.
 File lengths (MBytes):  RWF=      5 Int=      0 D2E=      0 Chk=      1 Scr=      1
 Normal termination of Gaussian 09 at Tue Oct 22 11:54:20 2019.
