 Fermi distribution function
 
Calculation with static geometry
 

********************************************************************************
 iSCC Total electronic   Diff electronic      SCC error    
   12   -0.52823385E+01   -0.84839069E-09    0.41919459E-07
********************************************************************************
 
 Total charge:     1.00000000

 Atomic gross charges (e)
 Atom           Charge
    1       0.49541111
    2      -0.37912989
    3       0.18293138
    4       0.13199127
    5       0.29243263
    6       0.27636349
 
Nr. of electrons (up):     12.00000000
Atom populations (up)
 Atom       Population
    1       3.50458889
    2       5.37912989
    3       0.81706862
    4       0.86800873
    5       0.70756737
    6       0.72363651
 
l-shell populations (up)
 Atom Sh.   l       Population
    1   1   0       1.38541873
    1   2   1       2.11917016
    2   1   0       1.49348024
    2   2   1       3.88564966
    3   1   0       0.81706862
    4   1   0       0.86800873
    5   1   0       0.70756737
    6   1   0       0.72363651
 
Orbital populations (up)
 Atom Sh.   l   m       Population  Label
    1   1   0   0       1.38541873  s
    1   2   1  -1       0.34488611  p_y
    1   2   1   0       0.92487918  p_z
    1   2   1   1       0.84940487  p_x
    2   1   0   0       1.49348024  s
    2   2   1  -1       1.18931107  p_y
    2   2   1   0       1.68675598  p_z
    2   2   1   1       1.00958261  p_x
    3   1   0   0       0.81706862  s
    4   1   0   0       0.86800873  s
    5   1   0   0       0.70756737  s
    6   1   0   0       0.72363651  s
 
Fermi level:                        -0.5008450095 H          -13.6287 eV
Band energy:                        -8.6239145433 H         -234.6687 eV
TS:                                  0.0000000000 H            0.0000 eV
Band free energy (E-TS):            -8.6239145433 H         -234.6687 eV
Extrapolated E(0K):                 -8.6239145433 H         -234.6687 eV
Input / Output electrons (q):     12.0000000000     12.0000000000
 
Energy H0:                          -5.4248269120 H         -147.6171 eV
Energy SCC:                          0.1424884381 H            3.8773 eV
Total Electronic energy:            -5.2823384739 H         -143.7397 eV
Repulsive energy:                    0.1498039730 H            4.0764 eV
Total energy:                       -5.1325345009 H         -139.6634 eV
Extrapolated to 0:                  -5.1325345009 H         -139.6634 eV
Total Mermin free energy:           -5.1325345009 H         -139.6634 eV
Force related energy:               -5.1325345009 H         -139.6634 eV
 
SCC converged
 
Excitation Energy:                   0.0253970037 H            0.6911 eV
 
Total Forces
    1      0.049889785030     -0.009522327981      0.006110779566
    2     -0.062798187533      0.048566471771      0.042681387102
    3      0.017148738673      0.006420060169     -0.004861368079
    4     -0.003213810312     -0.028269653201      0.008495446605
    5     -0.022745189727     -0.007417129587     -0.004835855882
    6      0.021718663869     -0.009777421171     -0.047590389312
 
Maximal derivative component:        0.627982E-01 au
 
 
