|===============================================================================
|
|  DFTB+ release 19.1
|
|  Copyright (C) 2006 - 2019  DFTB+ developers group
|
|===============================================================================
|
|  When publishing results obtained with DFTB+, please cite the following
|  reference:
|
|  * B. Aradi, B. Hourahine and T. Frauenheim,
|    DFTB+, a Sparse Matrix-Based Implementation of the DFTB Method,
|    J. Phys. Chem. A, 111 5678 (2007).  [doi: 10.1021/jp070186p]
|
|  You should also cite additional publications crediting the parametrization
|  data you use. Please consult the documentation of the SK-files for the
|  references.
|
|===============================================================================

Reading input file 'dftb_in.hsd'
Parser version: 7

--------------------------------------------------------------------------------
Reading SK-files:
Done.


Processed input in HSD format written to 'dftb_pin.hsd'

Starting initialization...
--------------------------------------------------------------------------------
OpenMP threads:              1
Chosen random seed:          1436442999
Mode:                        Static calculation
Self consistent charges:     Yes
SCC-tolerance:                 0.100000E-05
Max. scc iterations:                  10000
Shell resolved Hubbard:      No
On-site corrections:              Yes
Spin polarisation:           No
Nr. of up electrons:             6.000000
Nr. of down electrons:           6.000000
Periodic boundaries:         No
Electronic solver:           Relatively robust
Maximal SCC-cycles:                   10000
Electronic temperature:        0.100000E-07 H      0.272114E-06 eV
Initial charges:             Set automatically (system chrg:   0.000E+00)
Included shells:             C:  s, p
                             H:  s
Spin coupling constants:     C   1(s)-1(s):  -0.310000E-01
                             C   1(s)-2(p):  -0.250000E-01
                             C   2(p)-1(s):  -0.250000E-01
                             C   2(p)-2(p):  -0.230000E-01
                             H   1(s)-1(s):  -0.720000E-01
Extra options:
                             Mulliken analysis
                             Force calculation
Force type                   original
                             Eigenvector printing
On-site coupling constants:   Cuu:  1(s)-1(s):   0.000000E+00
                              Cuu:  1(s)-2(p):   0.497300E-01
                              Cuu:  2(p)-1(s):   0.497300E-01
                              Cuu:  2(p)-2(p):  -0.120300E-01
                              Cud:  1(s)-1(s):   0.000000E+00
                              Cud:  1(s)-2(p):   0.105120E+00
                              Cud:  2(p)-1(s):   0.105120E+00
                              Cud:  2(p)-2(p):   0.264300E-01
                              Huu:  1(s)-1(s):   0.000000E+00
                              Hud:  1(s)-1(s):   0.000000E+00
 
 
REKS Calcuation:             Yes
SSR(2,2) Calcuation:         Yes
Energy Functional:           (PPS+OSS)/2
Number of States:                         2
State-Averaging Weight:          0.500000
                                 0.500000
State of Interest:                        1
Newton-Raphson for FON opt:  Yes
NR max. Iterations:                      50
Level Shifting:              Yes
Shift Value:                     1.000000
W scale factor:              C  =    1.000000
                             H  =    1.000000
Gradient of Microstate:      No
CP-REKS Solver:              Preconditioned Conjugate-Gradient
CG max. Iterations:                     100
CG Tolerance:                  0.100000E-07
Non-Adiabatic Coupling:      Yes
 
 Warning! REKS calculation is not affected by,
          (mixer, filling) option.
 

--------------------------------------------------------------------------------

***  Geometry step: 0

 
 number of core 5
 number of active 2
 nEl 12.0000000000000
 nAOs 12
 super_N 46
 sparse elements 90
 
  iSCC       reks energy        Diff energy         x_a        Time(s)         SCC error   
    1       -5.7807389574       0.0000000000     0.997353     0.005029       1.1197518297
    2       -5.7825479652      -0.0018090078     0.997823     0.001516       0.0159009474
    3       -5.7837574028      -0.0012094376     0.998224     0.001490       0.0106714059
    4       -5.7846410341      -0.0008836312     0.998556     0.001488       0.0072112231
    5       -5.7853287312      -0.0006876971     0.998825     0.001486       0.0053014847
    6       -5.7858853958      -0.0005566647     0.999042     0.001477       0.0049891339
    7       -5.7863460792      -0.0004606834     0.999216     0.001482       0.0046782514
    8       -5.7867317243      -0.0003856451     0.999354     0.001474       0.0043700109
    9       -5.7870562882      -0.0003245639     0.999464     0.001478       0.0040669594
   10       -5.7873300076      -0.0002737193     0.999552     0.001468       0.0037719028
   11       -5.7875609284      -0.0002309208     0.999622     0.001473       0.0034873646
   12       -5.7877556503      -0.0001947220     0.999678     0.001487       0.0032153600
   13       -5.7879197128      -0.0001640625     0.999724     0.001470       0.0029573402
   14       -5.7880578160      -0.0001381032     0.999760     0.001468       0.0027142240
   15       -5.7881739640      -0.0001161480     0.999791     0.001473       0.0024864680
   16       -5.7882715692      -0.0000976052     0.999815     0.001466       0.0022741502
   17       -5.7883535363      -0.0000819671     0.999836     0.001474       0.0020770528
   18       -5.7884223325      -0.0000687962     0.999853     0.001468       0.0018947356
   19       -5.7884800492      -0.0000577166     0.999867     0.001491       0.0017266000
   20       -5.7885284549      -0.0000484057     0.999879     0.001472       0.0015719408
   21       -5.7885690427      -0.0000405878     0.999889     0.001470       0.0014299881
   22       -5.7886030705      -0.0000340278     0.999897     0.001465       0.0012999394
   23       -5.7886315969      -0.0000285264     0.999905     0.001459       0.0011809846
   24       -5.7886555114      -0.0000239146     0.999911     0.001463       0.0010723235
   25       -5.7886755610      -0.0000200496     0.999916     0.001475       0.0009731794
   26       -5.7886923721      -0.0000168111     0.999921     0.001460       0.0008828078
   27       -5.7887064699      -0.0000140978     0.999925     0.001463       0.0008005021
   28       -5.7887182945      -0.0000118246     0.999929     0.001470       0.0007255970
   29       -5.7887282146      -0.0000099201     0.999932     0.001462       0.0006574702
   30       -5.7887365389      -0.0000083243     0.999935     0.001466       0.0005955424
   31       -5.7887435259      -0.0000069870     0.999937     0.001456       0.0005392768
   32       -5.7887493920      -0.0000058661     0.999939     0.001482       0.0004881776
   33       -5.7887543185      -0.0000049265     0.999941     0.001461       0.0004417881
   34       -5.7887584571      -0.0000041386     0.999943     0.001461       0.0003996887
   35       -5.7887619348      -0.0000034777     0.999944     0.001458       0.0003649749
   36       -5.7887648581      -0.0000029233     0.999946     0.001461       0.0003374772
   37       -5.7887673162      -0.0000024581     0.999947     0.001450       0.0003121135
   38       -5.7887693838      -0.0000020676     0.999948     0.001470       0.0002887113
   39       -5.7887711235      -0.0000017397     0.999949     0.001469       0.0002671127
   40       -5.7887725877      -0.0000014643     0.999950     0.001464       0.0002471733
   41       -5.7887738206      -0.0000012329     0.999951     0.001462       0.0002287608
   42       -5.7887748590      -0.0000010384     0.999951     0.001462       0.0002117540
   43       -5.7887757338      -0.0000008749     0.999952     0.001461       0.0001960418
   44       -5.7887764712      -0.0000007374     0.999953     0.001460       0.0001815222
   45       -5.7887770929      -0.0000006217     0.999953     0.001457       0.0001681019
   46       -5.7887776172      -0.0000005243     0.999954     0.001478       0.0001556949
   47       -5.7887780596      -0.0000004424     0.999954     0.001465       0.0001442226
   48       -5.7887784330      -0.0000003734     0.999955     0.001468       0.0001336123
   49       -5.7887787483      -0.0000003152     0.999955     0.001463       0.0001237976
   50       -5.7887790145      -0.0000002663     0.999955     0.001463       0.0001147173
   51       -5.7887792395      -0.0000002250     0.999956     0.001455       0.0001063149
   52       -5.7887794296      -0.0000001901     0.999956     0.001460       0.0000985386
   53       -5.7887795904      -0.0000001608     0.999956     0.001459       0.0000913407
   54       -5.7887797263      -0.0000001360     0.999956     0.001466       0.0000846771
   55       -5.7887798414      -0.0000001150     0.999956     0.001458       0.0000785074
   56       -5.7887799387      -0.0000000974     0.999957     0.001468       0.0000727941
   57       -5.7887800212      -0.0000000824     0.999957     0.001452       0.0000675028
   58       -5.7887800910      -0.0000000698     0.999957     0.001461       0.0000626017
   59       -5.7887801502      -0.0000000592     0.999957     0.001459       0.0000580616
   60       -5.7887802003      -0.0000000502     0.999957     0.001454       0.0000538552
   61       -5.7887802429      -0.0000000425     0.999957     0.001466       0.0000499577
   62       -5.7887802789      -0.0000000361     0.999957     0.001455       0.0000463460
   63       -5.7887803095      -0.0000000306     0.999958     0.001486       0.0000429987
   64       -5.7887803355      -0.0000000260     0.999958     0.001461       0.0000398962
   65       -5.7887803576      -0.0000000221     0.999958     0.001465       0.0000370203
   66       -5.7887803763      -0.0000000187     0.999958     0.001447       0.0000343542
   67       -5.7887803922      -0.0000000159     0.999958     0.001595       0.0000318824
   68       -5.7887804058      -0.0000000135     0.999958     0.001512       0.0000295904
   69       -5.7887804173      -0.0000000115     0.999958     0.001471       0.0000274651
   70       -5.7887804271      -0.0000000098     0.999958     0.001469       0.0000254940
   71       -5.7887804354      -0.0000000083     0.999958     0.001458       0.0000236660
   72       -5.7887804425      -0.0000000071     0.999958     0.001461       0.0000219704
   73       -5.7887804485      -0.0000000060     0.999958     0.001463       0.0000203976
   74       -5.7887804537      -0.0000000051     0.999958     0.001460       0.0000189385
   75       -5.7887804581      -0.0000000044     0.999958     0.001472       0.0000175848
   76       -5.7887804618      -0.0000000037     0.999958     0.001458       0.0000163288
   77       -5.7887804650      -0.0000000032     0.999958     0.001467       0.0000151634
   78       -5.7887804677      -0.0000000027     0.999958     0.001455       0.0000140819
   79       -5.7887804700      -0.0000000023     0.999958     0.001457       0.0000130783
   80       -5.7887804720      -0.0000000020     0.999958     0.001458       0.0000121468
   81       -5.7887804737      -0.0000000017     0.999958     0.001464       0.0000112823
   82       -5.7887804751      -0.0000000014     0.999958     0.001462       0.0000104798
   83       -5.7887804764      -0.0000000012     0.999958     0.001462       0.0000097349
   84       -5.7887804774      -0.0000000011     0.999959     0.001465       0.0000090434
   85       -5.7887804783      -0.0000000009     0.999959     0.001474       0.0000084014
   86       -5.7887804791      -0.0000000008     0.999959     0.001461       0.0000078053
   87       -5.7887804797      -0.0000000007     0.999959     0.001469       0.0000072519
   88       -5.7887804803      -0.0000000006     0.999959     0.001463       0.0000067380
   89       -5.7887804808      -0.0000000005     0.999959     0.001470       0.0000062608
   90       -5.7887804812      -0.0000000004     0.999959     0.001463       0.0000058177
   91       -5.7887804815      -0.0000000004     0.999959     0.001467       0.0000054061
   92       -5.7887804819      -0.0000000003     0.999959     0.001470       0.0000050239
   93       -5.7887804821      -0.0000000003     0.999959     0.001471       0.0000046689
   94       -5.7887804823      -0.0000000002     0.999959     0.001465       0.0000043391
   95       -5.7887804825      -0.0000000002     0.999959     0.001468       0.0000040328
   96       -5.7887804827      -0.0000000002     0.999959     0.001454       0.0000037482
   97       -5.7887804828      -0.0000000001     0.999959     0.001473       0.0000034839
   98       -5.7887804829      -0.0000000001     0.999959     0.001461       0.0000032383
   99       -5.7887804831      -0.0000000001     0.999959     0.001467       0.0000030101
  100       -5.7887804831      -0.0000000001     0.999959     0.001460       0.0000027981
  101       -5.7887804832      -0.0000000001     0.999959     0.001470       0.0000026012
  102       -5.7887804833      -0.0000000001     0.999959     0.001462       0.0000024181
  103       -5.7887804833      -0.0000000001     0.999959     0.001464       0.0000022481
  104       -5.7887804834      -0.0000000000     0.999959     0.001460       0.0000020900
  105       -5.7887804834      -0.0000000000     0.999959     0.001465       0.0000019432
  106       -5.7887804835      -0.0000000000     0.999959     0.001465       0.0000018067
  107       -5.7887804835      -0.0000000000     0.999959     0.001468       0.0000016798
  108       -5.7887804835      -0.0000000000     0.999959     0.001459       0.0000015619
  109       -5.7887804835      -0.0000000000     0.999959     0.001457       0.0000014523
  110       -5.7887804836      -0.0000000000     0.999959     0.001462       0.0000013504
  111       -5.7887804836      -0.0000000000     0.999959     0.001462       0.0000012557
  112       -5.7887804836      -0.0000000000     0.999959     0.001473       0.0000011677
  113       -5.7887804836      -0.0000000000     0.999959     0.001458       0.0000010859
  114       -5.7887804836      -0.0000000000     0.999959     0.001468       0.0000010099
  115       -5.7887804836      -0.0000000000     0.999959     0.001453       0.0000009392
  
--------------------------------------------------
 Final SA-REKS(2,2) energy:      -5.78878048
  
 State     Energy      FON(1)    FON(2)   Spin
  PPS   -5.87730004   1.999917  0.000083  0.00
  OSS   -5.70026092   1.000000  1.000000  0.00
 Trip   -5.75376787   1.000000  1.000000  1.00
--------------------------------------------------
  
 Lagrangian Wab:   0.00337104  0.00337012
  
--------------------------------------------------
 SSR: 2SI-2SA-REKS(2,2) Hamiltonian matrix
               PPS           OSS
   PPS    -5.87730004    0.00473662
   OSS     0.00473662   -5.70026092
--------------------------------------------------
  
----------------------------------------------------------------
 SSR: 2SI-2SA-REKS(2,2) states
                    E_n       C_{PPS}    C_{OSS}
 SSR state  1   -5.87742668  -0.999643   0.026726
 SSR state  2   -5.70013429  -0.026726  -0.999643
----------------------------------------------------------------
 
 unrelaxed SSR FONs for S0:  1.999203  0.000797
 
Total Energy:                       -5.8774266800 H         -159.9329 eV
Extrapolated to 0:                   0.0000000000 H            0.0000 eV
Total Mermin free energy:            0.0000000000 H            0.0000 eV
Force related energy:                0.0000000000 H            0.0000 eV

 Time - getHellmannFeynmanGradientL =      0.00580192 seconds.
 Time - REKS_getSccSpinLRonSite =      0.00003815 seconds.
current indices:  1    1  2
 Time - get_Z_del_no_Hxc =      0.00089407 seconds.
 Time - REKS_get_Q1_del =      0.00019908 seconds.
 
  CG solver: Y initial guess                            time =       0.00138998
  CG solver: Iteration    1    eps =    0.000163229034  time =       0.00133395
  CG solver: Iteration    2    eps =    0.000083764222  time =       0.00133300
  CG solver: Iteration    3    eps =    0.000000466216  time =       0.00132298
  CG solver: Iteration    4    eps =    0.000000088813  time =       0.00131702
  CG solver: Iteration    5    eps =    0.000000011416  time =       0.00133300
  CG solver: Iteration    6    eps =    0.000000000500  time =       0.00132084
  Convergence reached in CG solver after    6 iterations
  CG solver: converged R, Z, Q2 matrix                  time =       0.00113797
  Time - CG_grad =      0.01062894 seconds.
 
 Time - REKS_get_Q1_mat =      0.00006986 seconds.
 
  CG solver: Y initial guess                            time =       0.00133801
  CG solver: Iteration    1    eps =    0.088104949221  time =       0.00132203
  CG solver: Iteration    2    eps =    0.001971795020  time =       0.00131583
  CG solver: Iteration    3    eps =    0.000107725526  time =       0.00131488
  CG solver: Iteration    4    eps =    0.000015856239  time =       0.00131917
  CG solver: Iteration    5    eps =    0.000004664202  time =       0.00131488
  CG solver: Iteration    6    eps =    0.000000267942  time =       0.00131512
  CG solver: Iteration    7    eps =    0.000000003980  time =       0.00131106
  Convergence reached in CG solver after    7 iterations
  CG solver: converged R, Z, Q2 matrix                  time =       0.00114608
  Time - CG_grad =      0.01182389 seconds.
 
 Time - REKS_get_Q1_mat =      0.00006390 seconds.
 Time - REKS_RT_shift =      0.00912499 seconds.
 
--------------------------------------------------
 Gradient Information
--------------------------------------------------
 1 st state (SSR)
    -0.06742574     0.00876251    -0.00806547
     0.06227962     0.03045750     0.01800504
    -0.00294963     0.01866627     0.00137755
     0.00107494    -0.03182551    -0.01281094
     0.01958631     0.01083120    -0.01271470
    -0.01256550    -0.03689197     0.01420852

 2 st state (SSR)
     0.02955100    -0.00947386    -0.00116738
    -0.03482279     0.00753372     0.00535204
     0.00659137    -0.01237403    -0.00911917
    -0.00318659     0.01295805     0.00661164
     0.00977229    -0.01417989     0.00173075
    -0.00790527     0.01553601    -0.00340788
--------------------------------------------------
 Coupling Information
--------------------------------------------------
 between  1 and  2 states
--------------------------------------------------
 g vector - difference gradient
    -0.04874352     0.00836397    -0.00409782
     0.04933382     0.01269849     0.00682215
    -0.00485397     0.01592309     0.00519125
     0.00204551    -0.02256052    -0.00949491
     0.00497870     0.01226081    -0.00753078
    -0.00276053    -0.02668584     0.00911010

 h vector - derivative coupling
    -0.00347198    -0.01433879    -0.01203225
     0.01332778     0.02280361     0.00909380
    -0.00143250     0.00711540    -0.00120757
    -0.00165039    -0.00255484     0.00430347
     0.00120865    -0.00490806    -0.00556398
    -0.00798156    -0.00811732     0.00540653

 G vector - GDV
    -0.04848837     0.00911819    -0.00344904
     0.04855120     0.01146189     0.00632650
    -0.00477050     0.01552015     0.00524836
     0.00213077    -0.02239178    -0.00971129
     0.00490701     0.01250555    -0.00722272
    -0.00233011    -0.02621399     0.00880820

 H vector - DCV - non-adiabatic coupling
    -0.03424584    -0.07824019    -0.06900478
     0.08993498     0.13226483     0.05327546
    -0.00953123     0.04487529    -0.00523689
    -0.00867908    -0.02118911     0.02137703
     0.00830802    -0.02394866    -0.03360790
    -0.04578685    -0.05376216     0.03319708
--------------------------------------------------
 
 
--------------------------------------------------------------------------------
DFTB+ running times                          cpu [s]             wall clock [s]
--------------------------------------------------------------------------------
SCC                                    +     0.18  ( 80.8%)      0.18  ( 80.7%)
      Dense to sparse                        0.02  (  8.1%)      0.02  (  7.9%)
      Range separated Hamiltonian            0.01  (  6.7%)      0.02  (  7.1%)
  Density matrix creation                    0.01  (  4.7%)      0.01  (  4.6%)
Post-SCC processing                    +     0.04  ( 18.3%)      0.04  ( 18.3%)
  Force calculation                          0.04  ( 18.0%)      0.04  ( 17.9%)
--------------------------------------------------------------------------------
Missing                                +     0.00  (  0.9%)      0.00  (  1.0%)
Total                                  =     0.22  (100.0%)      0.22  (100.0%)
--------------------------------------------------------------------------------
