     6
  Step:  1000            Position(A)                                  Velocity(au)
C        -0.72657561    -0.00194602    -0.03555681    -0.00028263    -0.00002012     0.00008035
C         0.68227005     0.05151137    -0.03332587     0.00021404     0.00020870    -0.00016305
H        -1.23574978     0.20745284    -0.98290592     0.00077379    -0.00044452    -0.00046109
H        -1.33382612    -0.50103162     0.72759656    -0.00003792    -0.00014282     0.00049348
H         1.47000147     0.14619805     0.72181489    -0.00001192    -0.00139695     0.00060225
H         1.07004057    -0.41324438    -0.94691945     0.00009330    -0.00026290     0.00035080
