     6
  Step:     0            Position(A)                                  Velocity(au)
C        -0.69284974     0.00000000     0.00000000     0.00000000     0.00000000     0.00000000
C         0.66284974     0.00000000     0.00000000     0.00000000     0.00000000     0.00000000
H        -1.03381877     0.72280451    -0.32280655     0.00000000     0.00000000     0.00000000
H        -1.23381879    -0.72280451    -0.34280655     0.00000000     0.00000000     0.00000000
H         1.03381877     0.75280451    -0.32280655     0.00000000     0.00000000     0.00000000
H         1.03381877    -0.72280451    -0.31280655     0.00000000     0.00000000     0.00000000
     6
  Step:     1            Position(A)                                  Velocity(au)
C        -0.69286494    -0.00006059     0.00004590    -0.00001129    -0.00004408     0.00003342
C         0.66284878     0.00002311     0.00005110    -0.00000050     0.00001683     0.00003720
H        -1.03419287     0.72389174    -0.32324099    -0.00027184     0.00079142    -0.00031624
H        -1.23401169    -0.72322208    -0.34290260    -0.00014075    -0.00030468    -0.00006995
H         1.03417347     0.75356871    -0.32304589     0.00025856     0.00055677    -0.00017417
H         1.03422365    -0.72379175    -0.31319264     0.00029446    -0.00071882    -0.00028117
     6
  Step:     2            Position(A)                                  Velocity(au)
C        -0.69291147    -0.00024107     0.00018277    -0.00002324    -0.00008723     0.00006624
C         0.66284702     0.00009205     0.00020347    -0.00000019     0.00003338     0.00007372
H        -1.03530554     0.72713295    -0.32453611    -0.00053676     0.00156808    -0.00062659
H        -1.23458860    -0.72447087    -0.34318911    -0.00028022    -0.00060650    -0.00013870
H         1.03523289     0.75584964    -0.32375914     0.00051375     0.00110510    -0.00034488
H         1.03542924    -0.72673592    -0.31434431     0.00058241    -0.00142499    -0.00055757
     6
  Step:     3            Position(A)                                  Velocity(au)
C        -0.69299206    -0.00053770     0.00040818    -0.00003648    -0.00012862     0.00009790
C         0.66284776     0.00020569     0.00045428     0.00000169     0.00004941     0.00010890
H        -1.03712854     0.73246794    -0.32666795    -0.00078827     0.00231613    -0.00092557
H        -1.23554425    -0.72653915    -0.34366117    -0.00041714    -0.00090265    -0.00020508
H         1.03698330     0.75961278    -0.32493215     0.00076238     0.00163690    -0.00050883
H         1.03740896    -0.73158537    -0.31624212     0.00085769    -0.00210656    -0.00082473
     6
  Step:     4            Position(A)                                  Velocity(au)
C        -0.69311101    -0.00094451     0.00071822    -0.00005155    -0.00016750     0.00012790
C         0.66285625     0.00036229     0.00079904     0.00000579     0.00006472     0.00014215
H        -1.03961678     0.73980039    -0.32959826    -0.00102071     0.00302334    -0.00120839
H        -1.23687001    -0.72940765    -0.34431072    -0.00055034    -0.00119044    -0.00026796
H         1.03940252     0.76480219    -0.32654202     0.00100155     0.00214473    -0.00066297
H         1.04012014    -0.73825718    -0.31885498     0.00111486    -0.00275289    -0.00107872
     6
  Step:     5            Position(A)                                  Velocity(au)
C        -0.69327400    -0.00145380     0.00110772    -0.00006886    -0.00020334     0.00015584
C         0.66287940     0.00055966     0.00123175     0.00001264     0.00007919     0.00017300
H        -1.04271103     0.74900327    -0.33327689    -0.00122951     0.00367971    -0.00147123
H        -1.23855421    -0.73304993    -0.34512670    -0.00067879    -0.00146734    -0.00032629
H         1.04246103     0.77134282    -0.32855806     0.00122884     0.00262214    -0.00080467
H         1.04350637    -0.74664153    -0.32214190     0.00134940    -0.00335512    -0.00131631
     6
  Step:     6            Position(A)                                  Velocity(au)
C        -0.69348764    -0.00205665     0.00157054    -0.00008871    -0.00023580     0.00018139
C         0.66292540     0.00079542     0.00174523     0.00002264     0.00009279     0.00020107
H        -1.04634124     0.75992557    -0.33764475    -0.00141135     0.00427779    -0.00171138
H        -1.24058249    -0.73743285    -0.34609529    -0.00080159    -0.00173101    -0.00037912
H         1.04612330     0.77914329    -0.33094296     0.00144230     0.00306377    -0.00093178
H         1.04750031    -0.75660708    -0.32605420     0.00155789    -0.00390647    -0.00153513
     6
  Step:     7            Position(A)                                  Velocity(au)
C        -0.69375915    -0.00274343     0.00209980    -0.00011122    -0.00026472     0.00020436
C         0.66300323     0.00106716     0.00233143     0.00003600     0.00010556     0.00022608
H        -1.05043004     0.77239950    -0.34263683    -0.00156420     0.00481276    -0.00192724
H        -1.24293828    -0.74251723    -0.34720021    -0.00091801    -0.00197937    -0.00042560
H         1.05034932     0.78809926    -0.33365419     0.00164061     0.00346547    -0.00104264
H         1.05202680    -0.76800692    -0.33053790     0.00173802    -0.00440234    -0.00173367
     6
  Step:     8            Position(A)                                  Velocity(au)
C        -0.69409594    -0.00350444     0.00268823    -0.00013641    -0.00029015     0.00022463
C         0.66312226     0.00137274     0.00298171     0.00005276     0.00011762     0.00024789
H        -1.05489621     0.78624764    -0.34818526    -0.00168720     0.00528227    -0.00211825
H        -1.24560329    -0.74825849    -0.34842298    -0.00102754    -0.00221058    -0.00046500
H         1.05509618     0.79809675    -0.33664541     0.00182299     0.00382436    -0.00113613
H         1.05700594    -0.78068446    -0.33553605     0.00188859    -0.00484017    -0.00191125
     6
  Step:     9            Position(A)                                  Velocity(au)
C        -0.69450520    -0.00433030     0.00332838    -0.00016413    -0.00031230     0.00024219
C         0.66329177     0.00171043     0.00368720     0.00007282     0.00012914     0.00026646
H        -1.05965775     0.80128942    -0.35422205    -0.00178056     0.00568618    -0.00228479
H        -1.24855813    -0.75460741    -0.34974337    -0.00112988    -0.00242308    -0.00049673
H         1.06031965     0.80901556    -0.33986796     0.00198921     0.00413871    -0.00121164
H         1.06235594    -0.79447891    -0.34099097     0.00200937    -0.00521932    -0.00206793
     6
  Step:    10            Position(A)                                  Velocity(au)
C        -0.69499363    -0.00521245     0.00401283    -0.00019414    -0.00033151     0.00025709
C         0.66352053     0.00207904     0.00443902     0.00009593     0.00014036     0.00028182
H        -1.06463448     0.81734666    -0.36068130    -0.00184530     0.00602620    -0.00242795
H        -1.25178284    -0.76151086    -0.35113971    -0.00122494    -0.00261558    -0.00052036
H         1.06597562     0.82073233    -0.34327216     0.00213955     0.00440790    -0.00126902
H         1.06799565    -0.80923012    -0.34684603     0.00210096    -0.00554073    -0.00220437
     6
  Step:    11            Position(A)                                  Velocity(au)
C        -0.69556701    -0.00614340     0.00473444    -0.00022606    -0.00034822     0.00026944
C         0.66381646     0.00247807     0.00522855     0.00012173     0.00015152     0.00029411
H        -1.06975010     0.83424806    -0.36750104    -0.00188312     0.00630543    -0.00254937
H        -1.25525758    -0.76891260    -0.35258935    -0.00131286    -0.00278707    -0.00053561
H         1.07202132     0.83312336    -0.34680851     0.00227469     0.00463221    -0.00130853
H         1.07384656    -0.82478243    -0.35304718     0.00216462    -0.00580661    -0.00232172
     6
  Step:    12            Position(A)                                  Velocity(au)
C        -0.69623001    -0.00711695     0.00548644    -0.00025943    -0.00036293     0.00027940
C         0.66418627     0.00290771     0.00604757     0.00014970     0.00016288     0.00030349
H        -1.07493371     0.85183249    -0.37462441    -0.00189620     0.00652803    -0.00265109
H        -1.25896315    -0.77675399    -0.35406909    -0.00139398    -0.00293680    -0.00054236
H         1.07841641     0.84606693    -0.35042883     0.00239566     0.00481271    -0.00133083
H         1.07983445    -0.84098779    -0.35954402     0.00220213    -0.00602012    -0.00242143
     6
  Step:    13            Position(A)                                  Velocity(au)
C        -0.69698589    -0.00812836     0.00626253    -0.00029369    -0.00037618     0.00028716
C         0.66463519     0.00336890     0.00688840     0.00017927     0.00017472     0.00031018
H        -1.08012086     0.86995133    -0.38200044    -0.00188703     0.00669883    -0.00273530
H        -1.26288160    -0.78497463    -0.35555566    -0.00146887    -0.00306425    -0.00054069
H         1.08512374     0.85944520    -0.35408714     0.00250374     0.00495111    -0.00133687
H         1.08589054    -0.85770785    -0.36629051     0.00221566    -0.00618508    -0.00250515
     6
  Step:    14            Position(A)                                  Velocity(au)
C        -0.69783627    -0.00917434     0.00705699    -0.00032819    -0.00038848     0.00029294
C         0.66516672     0.00386327     0.00774404     0.00020975     0.00018726     0.00031444
H        -1.08525429     0.88846990    -0.38958441    -0.00185831     0.00682307    -0.00280432
H        -1.26699673    -0.79351308    -0.35702626    -0.00153824    -0.00316913    -0.00053086
H         1.09210994     0.87314570    -0.35774049     0.00260036     0.00504957    -0.00132789
H         1.09195239    -0.87481541    -0.37324528     0.00220762    -0.00630570    -0.00257461
     6
  Step:    15            Position(A)                                  Velocity(au)
C        -0.69878087    -0.01025305     0.00786470    -0.00036222    -0.00040036     0.00029697
C         0.66578237     0.00439306     0.00860817     0.00024039     0.00020071     0.00031654
H        -1.09028439     0.90726826    -0.39733789    -0.00181294     0.00690619    -0.00286036
H        -1.27129456    -0.80230733    -0.35845907    -0.00160295    -0.00325134    -0.00051337
H         1.09934569     0.88706243    -0.36134966     0.00268701     0.00511058    -0.00130537
H         1.09796451    -0.89219517    -0.38037166     0.00218066    -0.00638640    -0.00263149
     6
  Step:    16            Position(A)                                  Velocity(au)
C        -0.69981734    -0.01136401     0.00868118    -0.00039496    -0.00041228     0.00029948
C         0.66648148     0.00496102     0.00947526     0.00027036     0.00021524     0.00031674
H        -1.09516966     0.92624142    -0.40522839    -0.00175396     0.00695363    -0.00290551
H        -1.27576363    -0.81129542    -0.35983402    -0.00166398    -0.00331099    -0.00048900
H         1.10680580     0.90109664    -0.36487987     0.00276516     0.00513690    -0.00127108
H         1.10387889    -0.90974407    -0.38763747     0.00213760    -0.00643161    -0.00267731
     6
  Step:    17            Position(A)                                  Velocity(au)
C        -0.70094101    -0.01250789     0.00950260    -0.00042555    -0.00042459     0.00030071
C         0.66726103     0.00557024     0.01034051     0.00029878     0.00023089     0.00031534
H        -1.09987719     0.94529927    -0.41322879    -0.00168464     0.00697074    -0.00294155
H        -1.28039522    -0.82041589    -0.36113355    -0.00172227    -0.00334837    -0.00045887
H         1.11446896     0.91515731    -0.36830151     0.00283609     0.00513142    -0.00122707
H         1.10965552    -0.92737110    -0.39501447     0.00208149    -0.00644567    -0.00271336
     6
  Step:    18            Position(A)                                  Velocity(au)
C        -0.70214477    -0.01368621     0.01032581    -0.00045311    -0.00043753     0.00030090
C         0.66811556     0.00622384     0.01119992     0.00032478     0.00024762     0.00031261
H        -1.10438336     0.96436601    -0.42131640    -0.00160855     0.00696257    -0.00296983
H        -1.28518311    -0.82960842    -0.36234370    -0.00177858    -0.00336407    -0.00042452
H         1.12231701     0.92916155    -0.37159100     0.00290072     0.00509716    -0.00117572
H         1.11526306    -0.94499692    -0.40247748     0.00201568    -0.00643267    -0.00274053
     6
  Step:    19            Position(A)                                  Velocity(au)
C        -0.70341917    -0.01490083     0.01114828    -0.00047694    -0.00045105     0.00030026
C         0.66903731     0.00692452     0.01205024     0.00034767     0.00026512     0.00030881
H        -1.10867472     0.98337913    -0.42947144    -0.00152949     0.00693352    -0.00299098
H        -1.29012269    -0.83881474    -0.36345534    -0.00183307    -0.00335908    -0.00038790
H         1.13033366     0.94303485    -0.37473176     0.00295927     0.00503723    -0.00111971
H         1.12067973    -0.96255283    -0.41000308     0.00194376    -0.00639616    -0.00275913
     6
  Step:    20            Position(A)                                  Velocity(au)
C        -0.70475327    -0.01615310     0.01196803    -0.00009501    -0.00008887     0.00005717
C         0.67001703     0.00767385     0.01288884     0.00007023     0.00005409     0.00005816
H        -1.11274850     1.00228702    -0.43767475    -0.00027747     0.00131692    -0.00057458
H        -1.29520861    -0.84798002    -0.36446525    -0.00036041    -0.00063774    -0.00006714
H         1.13850196     0.95671131    -0.37771492     0.00057576     0.00094747    -0.00020302
H         1.12589391    -0.97997896    -0.41756783     0.00035744    -0.00121213    -0.00052947
     6
  Step:    21            Position(A)                                  Velocity(au)
C        -0.70503773    -0.01641484     0.01212216    -0.00011275    -0.00010250     0.00005550
C         0.67023369     0.00784593     0.01304092     0.00008799     0.00007170     0.00005300
H        -1.11340156     1.00581319    -0.43925959    -0.00020047     0.00126048    -0.00058370
H        -1.29626240    -0.84967881    -0.36459910    -0.00040974    -0.00060316    -0.00003089
H         1.14014188     0.95917520    -0.37819020     0.00062276     0.00085278    -0.00014461
H         1.12676876    -0.98320174    -0.41902271     0.00028243    -0.00114310    -0.00053365
     6
  Step:    22            Position(A)                                  Velocity(au)
C        -0.70536990    -0.01671367     0.01227155    -0.00012997    -0.00011596     0.00005369
C         0.67049827     0.00806598     0.01317872     0.00010533     0.00008914     0.00004771
H        -1.11384489     1.00918082    -0.44086724    -0.00012406     0.00120094    -0.00059121
H        -1.29744963    -0.85127885    -0.36463416    -0.00045786    -0.00056567     0.00000511
H         1.14190793     0.96137538    -0.37850590     0.00066793     0.00075481    -0.00008633
H         1.12743860    -0.98623088    -0.42048641     0.00020751    -0.00107057    -0.00053590
     6
  Step:    23            Position(A)                                  Velocity(au)
C        -0.70574854    -0.01704903     0.01241581    -0.00014681    -0.00012919     0.00005174
C         0.67080978     0.00833347     0.01330188     0.00012237     0.00010636     0.00004229
H        -1.11408009     1.01238136    -0.44249314    -0.00004820     0.00113826    -0.00059701
H        -1.29876658    -0.85277257    -0.36457108    -0.00050448    -0.00052556     0.00004091
H         1.14379491     0.96330341    -0.37866244     0.00071115     0.00065394    -0.00002822
H         1.12790369    -0.98905694    -0.42195357     0.00013269    -0.00099465    -0.00053619
     6
  Step:    24            Position(A)                                  Velocity(au)
C        -0.70617281    -0.01742023     0.01255455    -0.00016340    -0.00014215     0.00004966
C         0.67116756     0.00864771     0.01341001     0.00013922     0.00012331     0.00003672
H        -1.11410849     1.01540629    -0.44413230     0.00002724     0.00107250    -0.00060088
H        -1.30020872    -0.85415327    -0.36441050    -0.00054931    -0.00048314     0.00007645
H         1.14579740     0.96495193    -0.37866017     0.00075238     0.00055057     0.00002982
H         1.12816429    -0.99167084    -0.42341908     0.00005793    -0.00091548    -0.00053471
     6
  Step:    25            Position(A)                                  Velocity(au)
C        -0.70664222    -0.01782647     0.01268744    -0.00017987    -0.00015480     0.00004746
C         0.67157118     0.00900789     0.01350268     0.00015595     0.00013996     0.00003098
H        -1.11393111     1.01824716    -0.44577933     0.00010237     0.00100366    -0.00060277
H        -1.30177085    -0.85541500    -0.36415305    -0.00059216    -0.00043869     0.00011179
H         1.14790989     0.96631461    -0.37849928     0.00079158     0.00044507     0.00008780
H         1.12822050    -0.99406386    -0.42487815    -0.00001683    -0.00083320    -0.00053152
     6
  Step:    26            Position(A)                                  Velocity(au)
C        -0.70715654    -0.01826685     0.01281409    -0.00019629    -0.00016711     0.00004509
C         0.67202049     0.00941316     0.01357948     0.00017266     0.00015628     0.00002512
H        -1.11354858     1.02089553    -0.44742902     0.00017734     0.00093174    -0.00060283
H        -1.30344740    -0.85655255    -0.36379907    -0.00063295    -0.00039245     0.00014708
H         1.15012672     0.96738614    -0.37818002     0.00082869     0.00033782     0.00014565
H         1.12807225    -0.99622782    -0.42632603    -0.00009163    -0.00074806    -0.00052655
     6
  Step:    27            Position(A)                                  Velocity(au)
C        -0.70771575    -0.01874041     0.01293402    -0.00021274    -0.00017906     0.00004255
C         0.67251553     0.00986260     0.01364010     0.00018942     0.00017226     0.00001915
H        -1.11296121     1.02334298    -0.44907653     0.00025225     0.00085676    -0.00060119
H        -1.30523266    -0.85756139    -0.36334853    -0.00067163    -0.00034467     0.00018244
H         1.15244215     0.96816223    -0.37770280     0.00086371     0.00022918     0.00020333
H         1.12771936    -0.99815519    -0.42775780    -0.00016652    -0.00066027    -0.00051979
     6
  Step:    28            Position(A)                                  Velocity(au)
C        -0.70832004    -0.01924614     0.01304679    -0.00022927    -0.00019063     0.00003985
C         0.67305649     0.01035528     0.01368423     0.00020626     0.00018789     0.00001306
H        -1.11216898     1.02558135    -0.45071709     0.00032719     0.00077887    -0.00059777
H        -1.30712071    -0.85843765    -0.36280126    -0.00070810    -0.00029561     0.00021784
H         1.15485054     0.96863956    -0.37706798     0.00089672     0.00011950     0.00026090
H         1.12716152    -0.99983900    -0.42916886    -0.00024153    -0.00057005    -0.00051145
     6
  Step:    29            Position(A)                                  Velocity(au)
C        -0.70896969    -0.01978303     0.01315200    -0.00024593    -0.00020183     0.00003702
C         0.67364359     0.01089020     0.01371151     0.00022319     0.00020315     0.00000683
H        -1.11117171     1.02760290    -0.45234571     0.00040224     0.00069825    -0.00059248
H        -1.30910538    -0.85917815    -0.36215723    -0.00074230    -0.00024551     0.00025321
H         1.15734655     0.96881582    -0.37627581     0.00092783     0.00000917     0.00031839
H         1.12639836    -1.00127287    -0.43055520    -0.00031669    -0.00047759    -0.00050176
     6
  Step:    30            Position(A)                                  Velocity(au)
C        -0.70966511    -0.02035003     0.01324931    -0.00026275    -0.00021265     0.00003407
C         0.67427715     0.01146636     0.01372159     0.00024023     0.00021804     0.00000049
H        -1.10996902     1.02940028    -0.45395742     0.00047744     0.00061500    -0.00058544
H        -1.31118050    -0.85978041    -0.36141643    -0.00077426    -0.00019462     0.00028861
H         1.15992506     0.96868971    -0.37532656     0.00095710    -0.00010145     0.00037575
H         1.12542947    -1.00245105    -0.43191317    -0.00039198    -0.00038317    -0.00049075
     6
  Step:    31            Position(A)                                  Velocity(au)
C        -0.71040673    -0.02094605     0.01333830    -0.00027972    -0.00022306     0.00003095
C         0.67495749     0.01208271     0.01371422     0.00025740     0.00023254    -0.00000592
H        -1.10856047     1.03096640    -0.45554772     0.00055280     0.00052918    -0.00057685
H        -1.31334001    -0.86024255    -0.36057868    -0.00080405    -0.00014316     0.00032411
H         1.16258112     0.96826096    -0.37422079     0.00098459    -0.00021198     0.00043283
H         1.12425455    -1.00336851    -0.43323911    -0.00046736    -0.00028704    -0.00047838
     6
  Step:    32            Position(A)                                  Velocity(au)
C        -0.71119499    -0.02156997     0.01341858    -0.00029686    -0.00023305     0.00002769
C         0.67568495     0.01273817     0.01368923     0.00027469     0.00024664    -0.00001239
H        -1.10694563     1.03229445    -0.45711251     0.00062831     0.00044095    -0.00056681
H        -1.31557807    -0.86056339    -0.35964371    -0.00083173    -0.00009139     0.00035969
H         1.16530995     0.96753036    -0.37295939     0.00101038    -0.00032201     0.00048954
H         1.12287338    -1.00402097    -0.43452940    -0.00054278    -0.00018947    -0.00046472
     6
  Step:    33            Position(A)                                  Velocity(au)
C        -0.71203033    -0.02222063     0.01348976    -0.00031416    -0.00024261     0.00002431
C         0.67645984     0.01343161     0.01364644     0.00029208     0.00026031    -0.00001893
H        -1.10512409     1.03337810    -0.45864769     0.00070394     0.00035052    -0.00055523
H        -1.31788889    -0.86074240    -0.35861147    -0.00085729    -0.00003956     0.00039522
H         1.16810712     0.96649979    -0.37154337     0.00103463    -0.00043116     0.00054586
H         1.12128594    -1.00440477    -0.43578084    -0.00061818    -0.00009068    -0.00045001
     6
  Step:    34            Position(A)                                  Velocity(au)
C        -0.71291320    -0.02289686     0.01355157    -0.00033161    -0.00025173     0.00002085
C         0.67728241     0.01416185     0.01358568     0.00030955     0.00027353    -0.00002553
H        -1.10309561     1.03421162    -0.46014902     0.00077964     0.00025810    -0.00054208
H        -1.32026673    -0.86077978    -0.35748224    -0.00088078     0.00001207     0.00043060
H         1.17096865     0.96517222    -0.36997387     0.00105751    -0.00053902     0.00060173
H         1.11949240    -1.00451688    -0.43699080    -0.00069347     0.00000910    -0.00043443
     6
  Step:    35            Position(A)                                  Velocity(au)
C        -0.71384399    -0.02359742     0.01360378    -0.00034919    -0.00026040     0.00001729
C         0.67815283     0.01492763     0.01350680     0.00032707     0.00028629    -0.00003216
H        -1.10086007     1.03478971    -0.46161241     0.00085533     0.00016380    -0.00052753
H        -1.32270604    -0.86067641    -0.35625646    -0.00090230     0.00006325     0.00046580
H         1.17389088     0.96355174    -0.36825234     0.00107909    -0.00064517     0.00065699
H         1.11749320    -1.00435498    -0.43815689    -0.00076854     0.00010960    -0.00041798
     6
  Step:    36            Position(A)                                  Velocity(au)
C        -0.71482300    -0.02432105     0.01364609    -0.00036687    -0.00026859     0.00001362
C         0.67907123     0.01572765     0.01340980     0.00034462     0.00029856    -0.00003878
H        -1.09841760     1.03510740    -0.46303433     0.00093093     0.00006775    -0.00051178
H        -1.32520164    -0.86043385    -0.35493460    -0.00092199     0.00011374     0.00050083
H         1.17687040     0.96164364    -0.36638075     0.00109948    -0.00074917     0.00071142
H         1.11528909    -1.00391751    -0.43927669    -0.00084327     0.00021051    -0.00040062
     6
  Step:    37            Position(A)                                  Velocity(au)
C        -0.71585049    -0.02506640     0.01367824    -0.00038463    -0.00027628     0.00000986
C         0.68003765     0.01656054     0.01329472     0.00036217     0.00031032    -0.00004537
H        -1.09576858     1.03516018    -0.46441155     0.00100635    -0.00002986    -0.00049487
H        -1.32774867    -0.86005433    -0.35351726    -0.00093996     0.00016329     0.00053558
H         1.17990416     0.95945438    -0.36436150     0.00111884    -0.00085058     0.00076490
H         1.11288116    -1.00320366    -0.44034788    -0.00091754     0.00031159    -0.00038248
     6
  Step:    38            Position(A)                                  Velocity(au)
C        -0.71692662    -0.02583211     0.01370005    -0.00040243    -0.00028347     0.00000606
C         0.68105199     0.01742485     0.01316164     0.00037966     0.00032153    -0.00005194
H        -1.09291366     1.03494412    -0.46574080     0.00108146    -0.00012877    -0.00047674
H        -1.33034245    -0.85954077    -0.35200543    -0.00095624     0.00021164     0.00056989
H         1.18298962     0.95699164    -0.36219729     0.00113737    -0.00094896     0.00081736
H         1.11027085    -1.00221332    -0.44136866    -0.00099121     0.00041260    -0.00036380
     6
  Step:    39            Position(A)                                  Velocity(au)
C        -0.71805147    -0.02661678     0.01371140    -0.00042024    -0.00029014     0.00000223
C         0.68211407     0.01831906     0.01301063     0.00039705     0.00033217    -0.00005847
H        -1.08985384     1.03445598    -0.46701877     0.00115615    -0.00022875    -0.00045740
H        -1.33297849    -0.85889684    -0.35040052    -0.00097093     0.00025853     0.00060361
H         1.18612476     0.95426431    -0.35989109     0.00115527    -0.00104386     0.00086867
H         1.10745999    -1.00094703    -0.44233775    -0.00106414     0.00051327    -0.00034473
     6
  Step:    40            Position(A)                                  Velocity(au)
C        -0.71922500    -0.02741896     0.01371224    -0.00027819    -0.00018817    -0.00000103
C         0.68322354     0.01924157     0.01284186     0.00026313     0.00021734    -0.00004123
H        -1.08659044     1.03369306    -0.46824244     0.00078137    -0.00020935    -0.00027759
H        -1.33565267    -0.85812683    -0.34870415    -0.00062508     0.00019290     0.00040439
H         1.18930806     0.95128256    -0.35744635     0.00074479    -0.00072073     0.00058342
H         1.10445081    -0.99940614    -0.44325408    -0.00072160     0.00038951    -0.00020659
     6
  Step:    41            Position(A)                                  Velocity(au)
C        -0.72001000    -0.02794154     0.01370409    -0.00029591    -0.00019384    -0.00000493
C         0.68396657     0.01984924     0.01272039     0.00028024     0.00022688    -0.00004758
H        -1.08435274     1.03298201    -0.46897323     0.00085496    -0.00031086    -0.00025661
H        -1.33737930    -0.85753876    -0.34755339    -0.00063733     0.00023652     0.00043699
H         1.19136825     0.94919014    -0.35578374     0.00076190    -0.00080808     0.00063204
H         1.10237968    -0.99820480    -0.44379203    -0.00079279     0.00048874    -0.00018679
     6
  Step:    42            Position(A)                                  Velocity(au)
C        -0.72084337    -0.02847913     0.01368527    -0.00031356    -0.00019915    -0.00000883
C         0.68475621     0.02048243     0.01258168     0.00029721     0.00023600    -0.00005382
H        -1.08191449     1.03199287    -0.46964600     0.00092801    -0.00041264    -0.00023519
H        -1.33913839    -0.85683324    -0.34631410    -0.00064885     0.00027867     0.00046910
H         1.19347503     0.94686300    -0.35398965     0.00077893    -0.00089220     0.00067951
H         1.10011487    -0.99673315    -0.44427558    -0.00086319     0.00058708    -0.00016685
     6
  Step:    43            Position(A)                                  Velocity(au)
C        -0.72172493    -0.02903071     0.01365580    -0.00033114    -0.00020406    -0.00001271
C         0.68559205     0.02113995     0.01242601     0.00031401     0.00024466    -0.00005997
H        -1.07927722     1.03072522    -0.47025943     0.00100045    -0.00051446    -0.00021325
H        -1.34092799    -0.85601466    -0.34498784    -0.00065968     0.00031909     0.00050057
H         1.19562843     0.94431050    -0.35206729     0.00079607    -0.00097269     0.00072578
H         1.09765870    -0.99499392    -0.44470465    -0.00093268     0.00068429    -0.00014700
     6
  Step:    44            Position(A)                                  Velocity(au)
C        -0.72265445    -0.02959521     0.01361579    -0.00034862    -0.00020858    -0.00001654
C         0.68647359     0.02182054     0.01225364     0.00033061     0.00025286    -0.00006602
H        -1.07644277     1.02917926    -0.47081215     0.00107218    -0.00061607    -0.00019083
H        -1.34274629    -0.85508809    -0.34357649    -0.00066989     0.00035753     0.00053129
H         1.19782896     0.94154315    -0.35002009     0.00081347    -0.00104913     0.00077074
H         1.09501384    -0.99299057    -0.44507969    -0.00100112     0.00078010    -0.00012739
     6