|===============================================================================
|
|  DFTB+ release 19.1
|
|  Copyright (C) 2006 - 2019  DFTB+ developers group
|
|===============================================================================
|
|  When publishing results obtained with DFTB+, please cite the following
|  reference:
|
|  * B. Aradi, B. Hourahine and T. Frauenheim,
|    DFTB+, a Sparse Matrix-Based Implementation of the DFTB Method,
|    J. Phys. Chem. A, 111 5678 (2007).  [doi: 10.1021/jp070186p]
|
|  You should also cite additional publications crediting the parametrization
|  data you use. Please consult the documentation of the SK-files for the
|  references.
|
|===============================================================================

Reading input file 'dftb_in.hsd'
Parser version: 7

--------------------------------------------------------------------------------
Reading SK-files:
Done.


Processed input in HSD format written to 'dftb_pin.hsd'

Starting initialization...
--------------------------------------------------------------------------------
OpenMP threads:              1
Chosen random seed:          1771336145
Mode:                        Static calculation
Self consistent charges:     Yes
SCC-tolerance:                 0.100000E-05
Max. scc iterations:                  10000
Shell resolved Hubbard:      No
On-site corrections:              Yes
Spin polarisation:           No
Nr. of up electrons:             6.000000
Nr. of down electrons:           6.000000
Periodic boundaries:         No
Electronic solver:           Relatively robust
Maximal SCC-cycles:                   10000
Electronic temperature:        0.100000E-07 H      0.272114E-06 eV
Initial charges:             Set automatically (system chrg:   0.000E+00)
Included shells:             C:  s, p
                             H:  s
Spin coupling constants:     C   1(s)-1(s):  -0.310000E-01
                             C   1(s)-2(p):  -0.250000E-01
                             C   2(p)-1(s):  -0.250000E-01
                             C   2(p)-2(p):  -0.230000E-01
                             H   1(s)-1(s):  -0.720000E-01
Extra options:
                             Mulliken analysis
                             Force calculation
Force type                   original
                             Eigenvector printing
On-site coupling constants:   Cuu:  1(s)-1(s):   0.000000E+00
                              Cuu:  1(s)-2(p):   0.497300E-01
                              Cuu:  2(p)-1(s):   0.497300E-01
                              Cuu:  2(p)-2(p):  -0.120300E-01
                              Cud:  1(s)-1(s):   0.000000E+00
                              Cud:  1(s)-2(p):   0.105120E+00
                              Cud:  2(p)-1(s):   0.105120E+00
                              Cud:  2(p)-2(p):   0.264300E-01
                              Huu:  1(s)-1(s):   0.000000E+00
                              Hud:  1(s)-1(s):   0.000000E+00
 
 
REKS Calcuation:             Yes
SSR(2,2) Calcuation:         Yes
Energy Functional:           (PPS+OSS)/2
Number of States:                         2
State-Averaging Weight:          0.500000
                                 0.500000
State of Interest:                        1
Newton-Raphson for FON opt:  Yes
NR max. Iterations:                      50
Level Shifting:              Yes
Shift Value:                     1.000000
W scale factor:              C  =    1.000000
                             H  =    1.000000
Gradient of Microstate:      No
CP-REKS Solver:              Preconditioned Conjugate-Gradient
CG max. Iterations:                     100
CG Tolerance:                  0.100000E-07
 
 Warning! REKS calculation is not affected by,
          (mixer, filling) option.
 

--------------------------------------------------------------------------------

***  Geometry step: 0

 
 number of core 5
 number of active 2
 nEl 12.0000000000000
 nAOs 12
 super_N 46
 sparse elements 90
 
  iSCC       reks energy        Diff energy         x_a        Time(s)         SCC error   
    1       -5.7576357673       0.0000000000     0.999882     0.005082       1.1762140764
    2       -5.7585549962      -0.0009192289     0.999885     0.001518       0.0149986431
    3       -5.7590355917      -0.0004805955     0.999887     0.001502       0.0093003969
    4       -5.7593405512      -0.0003049595     0.999890     0.001481       0.0058622067
    5       -5.7595769393      -0.0002363881     0.999894     0.001480       0.0038043400
    6       -5.7597899757      -0.0002130364     0.999897     0.001475       0.0024885249
    7       -5.7599996657      -0.0002096901     0.999901     0.001486       0.0018098586
    8       -5.7602154399      -0.0002157742     0.999906     0.001477       0.0018528057
    9       -5.7604421655      -0.0002267256     0.999910     0.001476       0.0018941508
   10       -5.7606826837      -0.0002405182     0.999915     0.001474       0.0019329007
   11       -5.7609389081      -0.0002562244     0.999919     0.001472       0.0020253946
   12       -5.7612123101      -0.0002734020     0.999924     0.001465       0.0021641442
   13       -5.7615041342      -0.0002918240     0.999929     0.001475       0.0023105977
   14       -5.7618154906      -0.0003113564     0.999935     0.001478       0.0024641931
   15       -5.7621473896      -0.0003318990     0.999940     0.001470       0.0026243063
   16       -5.7625007468      -0.0003533572     0.999945     0.001469       0.0027902093
   17       -5.7628763726      -0.0003756258     0.999950     0.001474       0.0029610369
   18       -5.7632749536      -0.0003985811     0.999955     0.001466       0.0031357607
   19       -5.7636970289      -0.0004220753     0.999960     0.001470       0.0033131708
   20       -5.7641429628      -0.0004459339     0.999965     0.001468       0.0034918631
   21       -5.7646129170      -0.0004699542     0.999969     0.001468       0.0036702353
   22       -5.7651068225      -0.0004939055     0.999974     0.001471       0.0038464910
   23       -5.7656243527      -0.0005175302     0.999977     0.001473       0.0040186531
   24       -5.7661648997      -0.0005405470     0.999981     0.001467       0.0041845883
   25       -5.7667275547      -0.0005626550     0.999984     0.001469       0.0043420416
   26       -5.7673110941      -0.0005835394     0.999987     0.001465       0.0044886822
   27       -5.7679139730      -0.0006028789     0.999989     0.001468       0.0046221587
   28       -5.7685343270      -0.0006203539     0.999992     0.001467       0.0047401638
   29       -5.7691699827      -0.0006356557     0.999993     0.001465       0.0048405049
   30       -5.7698184793      -0.0006484967     0.999995     0.001457       0.0049211779
   31       -5.7704770995      -0.0006586201     0.999996     0.001473       0.0049804415
   32       -5.7711429094      -0.0006658100     0.999997     0.001471       0.0050168857
   33       -5.7718128088      -0.0006698993     0.999998     0.001471       0.0050294931
   34       -5.7724835862      -0.0006707775     0.999998     0.001475       0.0050176864
   35       -5.7731519813      -0.0006683951     0.999999     0.001470       0.0049834921
   36       -5.7738147483      -0.0006627670     0.999999     0.001463       0.0049690679
   37       -5.7744687203      -0.0006539720     0.999999     0.001468       0.0049445612
   38       -5.7751108709      -0.0006421506     1.000000     0.001456       0.0048962005
   39       -5.7757383706      -0.0006274997     1.000000     0.001470       0.0048250207
   40       -5.7763486364      -0.0006102658     1.000000     0.001464       0.0047324725
   41       -5.7769393719      -0.0005907355     1.000000     0.001482       0.0046203651
   42       -5.7775085972      -0.0005692253     1.000000     0.001457       0.0044907962
   43       -5.7780546688      -0.0005460715     1.000000     0.001463       0.0043460747
   44       -5.7785762875      -0.0005216187     1.000000     0.001470       0.0041886407
   45       -5.7790724975      -0.0004962100     1.000000     0.001460       0.0040209877
   46       -5.7795426752      -0.0004701777     1.000000     0.001471       0.0038455894
   47       -5.7799865108      -0.0004438356     1.000000     0.001463       0.0036648353
   48       -5.7804039834      -0.0004174727     1.000000     0.001466       0.0034809771
   49       -5.7807953321      -0.0003913487     1.000000     0.001457       0.0032960865
   50       -5.7811610234      -0.0003656913     1.000000     0.001469       0.0031120254
   51       -5.7815017177      -0.0003406943     1.000000     0.001461       0.0029304274
   52       -5.7818182357      -0.0003165180     1.000000     0.001464       0.0027526897
   53       -5.7821115258      -0.0002932901     1.000000     0.001458       0.0025799743
   54       -5.7823826334      -0.0002711076     1.000000     0.001470       0.0024132164
   55       -5.7826326727      -0.0002500394     1.000000     0.001456       0.0022531384
   56       -5.7828628018      -0.0002301290     1.000000     0.001466       0.0021002683
   57       -5.7830741999      -0.0002113982     1.000000     0.001458       0.0019549595
   58       -5.7832680494      -0.0001938495     1.000000     0.001466       0.0018174132
   59       -5.7834455193      -0.0001774699     1.000000     0.001456       0.0016876998
   60       -5.7836077528      -0.0001622336     1.000000     0.001461       0.0015657800
   61       -5.7837558573      -0.0001481044     1.000000     0.001458       0.0014515248
   62       -5.7838908960      -0.0001350387     1.000000     0.001475       0.0013694367
   63       -5.7840138832      -0.0001229871     1.000000     0.001452       0.0013186765
   64       -5.7841257797      -0.0001118965     1.000000     0.001469       0.0012676769
   65       -5.7842274911      -0.0001017114     1.000000     0.001452       0.0012168111
   66       -5.7843198668      -0.0000923756     1.000000     0.001463       0.0011663957
   67       -5.7844036996      -0.0000838328     1.000000     0.001460       0.0011166954
   68       -5.7844797273      -0.0000760277     1.000000     0.001480       0.0010679285
   69       -5.7845486338      -0.0000689065     1.000000     0.001459       0.0010202719
   70       -5.7846110512      -0.0000624174     1.000000     0.001467       0.0009738658
   71       -5.7846675620      -0.0000565109     1.000000     0.001457       0.0009288188
   72       -5.7847187022      -0.0000511402     1.000000     0.001464       0.0008852115
   73       -5.7847649634      -0.0000462612     1.000000     0.001465       0.0008431007
   74       -5.7848067959      -0.0000418325     1.000000     0.001464       0.0008025225
   75       -5.7848446113      -0.0000378154     1.000000     0.001478       0.0007634961
   76       -5.7848787856      -0.0000341743     1.000000     0.001467       0.0007260259
   77       -5.7849096613      -0.0000308758     1.000000     0.001455       0.0006901042
   78       -5.7849375506      -0.0000278892     1.000000     0.001470       0.0006557132
   79       -5.7849627370      -0.0000251865     1.000000     0.001466       0.0006228273
   80       -5.7849854786      -0.0000227416     1.000000     0.001458       0.0005914143
   81       -5.7850060093      -0.0000205307     1.000000     0.001468       0.0005614366
   82       -5.7850245416      -0.0000185323     1.000000     0.001461       0.0005328531
   83       -5.7850412679      -0.0000167263     1.000000     0.001542       0.0005056195
   84       -5.7850563626      -0.0000150947     1.000000     0.001480       0.0004796898
   85       -5.7850699836      -0.0000136210     1.000000     0.001469       0.0004550162
   86       -5.7850822739      -0.0000122903     1.000000     0.001474       0.0004315505
   87       -5.7850933627      -0.0000110888     1.000000     0.001466       0.0004092444
   88       -5.7851033668      -0.0000100041     1.000000     0.001459       0.0003880494
   89       -5.7851123920      -0.0000090252     1.000000     0.001462       0.0003679179
   90       -5.7851205337      -0.0000081417     1.000000     0.001456       0.0003488029
   91       -5.7851278781      -0.0000073444     1.000000     0.001464       0.0003306585
   92       -5.7851345032      -0.0000066251     1.000000     0.001602       0.0003134399
   93       -5.7851404793      -0.0000059761     1.000000     0.001543       0.0002971037
   94       -5.7851458698      -0.0000053906     1.000000     0.001472       0.0002816078
   95       -5.7851507322      -0.0000048624     1.000000     0.001465       0.0002669116
   96       -5.7851551181      -0.0000043859     1.000000     0.001467       0.0002529761
   97       -5.7851590742      -0.0000039561     1.000000     0.001460       0.0002397636
   98       -5.7851626427      -0.0000035685     1.000000     0.001470       0.0002272383
   99       -5.7851658615      -0.0000032188     1.000000     0.001463       0.0002153654
  100       -5.7851687649      -0.0000029034     1.000000     0.001466       0.0002041122
  101       -5.7851713839      -0.0000026190     1.000000     0.001466       0.0001934469
  102       -5.7851737463      -0.0000023624     1.000000     0.001472       0.0001833396
  103       -5.7851758773      -0.0000021310     1.000000     0.001461       0.0001737615
  104       -5.7851777996      -0.0000019223     1.000000     0.001475       0.0001646854
  105       -5.7851795337      -0.0000017341     1.000000     0.001467       0.0001560852
  106       -5.7851810980      -0.0000015643     1.000000     0.001469       0.0001479362
  107       -5.7851825091      -0.0000014112     1.000000     0.001457       0.0001402148
  108       -5.7851837822      -0.0000012730     1.000000     0.001461       0.0001328988
  109       -5.7851849306      -0.0000011485     1.000000     0.001463       0.0001259670
  110       -5.7851859667      -0.0000010361     1.000000     0.001460       0.0001193991
  111       -5.7851869015      -0.0000009348     1.000000     0.001466       0.0001131760
  112       -5.7851877448      -0.0000008433     1.000000     0.001453       0.0001072985
  113       -5.7851885057      -0.0000007609     1.000000     0.001465       0.0001017495
  114       -5.7851891922      -0.0000006865     1.000000     0.001455       0.0000964886
  115       -5.7851898115      -0.0000006194     1.000000     0.001462       0.0000915011
  116       -5.7851903704      -0.0000005589     1.000000     0.001455       0.0000867726
  117       -5.7851908747      -0.0000005043     1.000000     0.001464       0.0000822898
  118       -5.7851913297      -0.0000004550     1.000000     0.001459       0.0000780398
  119       -5.7851917402      -0.0000004106     1.000000     0.001504       0.0000740106
  120       -5.7851921107      -0.0000003705     1.000000     0.001466       0.0000701907
  121       -5.7851924450      -0.0000003343     1.000000     0.001469       0.0000665691
  122       -5.7851927467      -0.0000003017     1.000000     0.001456       0.0000631355
  123       -5.7851930189      -0.0000002722     1.000000     0.001469       0.0000598802
  124       -5.7851932646      -0.0000002457     1.000000     0.001455       0.0000567937
  125       -5.7851934863      -0.0000002217     1.000000     0.001465       0.0000538675
  126       -5.7851936864      -0.0000002001     1.000000     0.001455       0.0000510929
  127       -5.7851938669      -0.0000001806     1.000000     0.001460       0.0000484623
  128       -5.7851940299      -0.0000001630     1.000000     0.001453       0.0000459680
  129       -5.7851941770      -0.0000001471     1.000000     0.001461       0.0000436029
  130       -5.7851943097      -0.0000001327     1.000000     0.001454       0.0000413604
  131       -5.7851944295      -0.0000001198     1.000000     0.001462       0.0000392340
  132       -5.7851945377      -0.0000001081     1.000000     0.001461       0.0000372176
  133       -5.7851946353      -0.0000000976     1.000000     0.001464       0.0000353056
  134       -5.7851947234      -0.0000000881     1.000000     0.001456       0.0000334925
  135       -5.7851948029      -0.0000000795     1.000000     0.001460       0.0000317731
  136       -5.7851948747      -0.0000000718     1.000000     0.001453       0.0000301426
  137       -5.7851949395      -0.0000000648     1.000000     0.001470       0.0000285963
  138       -5.7851949980      -0.0000000585     1.000000     0.001462       0.0000271299
  139       -5.7851950508      -0.0000000528     1.000000     0.001466       0.0000257392
  140       -5.7851950984      -0.0000000477     1.000000     0.001460       0.0000244202
  141       -5.7851951414      -0.0000000430     1.000000     0.001456       0.0000231693
  142       -5.7851951803      -0.0000000388     1.000000     0.001455       0.0000219829
  143       -5.7851952153      -0.0000000351     1.000000     0.001451       0.0000208576
  144       -5.7851952470      -0.0000000316     1.000000     0.001467       0.0000197903
  145       -5.7851952755      -0.0000000286     1.000000     0.001455       0.0000187780
  146       -5.7851953013      -0.0000000258     1.000000     0.001461       0.0000178178
  147       -5.7851953246      -0.0000000233     1.000000     0.001456       0.0000169070
  148       -5.7851953456      -0.0000000210     1.000000     0.001460       0.0000160431
  149       -5.7851953646      -0.0000000190     1.000000     0.001451       0.0000152236
  150       -5.7851953818      -0.0000000171     1.000000     0.001460       0.0000144462
  151       -5.7851953972      -0.0000000155     1.000000     0.001454       0.0000137087
  152       -5.7851954112      -0.0000000140     1.000000     0.001455       0.0000130092
  153       -5.7851954238      -0.0000000126     1.000000     0.001456       0.0000123455
  154       -5.7851954352      -0.0000000114     1.000000     0.001461       0.0000117159
  155       -5.7851954455      -0.0000000103     1.000000     0.001453       0.0000111186
  156       -5.7851954548      -0.0000000093     1.000000     0.001466       0.0000105520
  157       -5.7851954631      -0.0000000084     1.000000     0.001449       0.0000100144
  158       -5.7851954707      -0.0000000076     1.000000     0.001460       0.0000095043
  159       -5.7851954775      -0.0000000068     1.000000     0.001451       0.0000090204
  160       -5.7851954837      -0.0000000062     1.000000     0.001456       0.0000085612
  161       -5.7851954893      -0.0000000056     1.000000     0.001453       0.0000081256
  162       -5.7851954943      -0.0000000050     1.000000     0.001461       0.0000077122
  163       -5.7851954988      -0.0000000045     1.000000     0.001456       0.0000073200
  164       -5.7851955029      -0.0000000041     1.000000     0.001464       0.0000069478
  165       -5.7851955066      -0.0000000037     1.000000     0.001453       0.0000065947
  166       -5.7851955100      -0.0000000033     1.000000     0.001452       0.0000062596
  167       -5.7851955130      -0.0000000030     1.000000     0.001452       0.0000059416
  168       -5.7851955157      -0.0000000027     1.000000     0.001458       0.0000056399
  169       -5.7851955182      -0.0000000025     1.000000     0.001465       0.0000053536
  170       -5.7851955204      -0.0000000022     1.000000     0.001450       0.0000050819
  171       -5.7851955224      -0.0000000020     1.000000     0.001461       0.0000048240
  172       -5.7851955242      -0.0000000018     1.000000     0.001453       0.0000045793
  173       -5.7851955259      -0.0000000016     1.000000     0.001459       0.0000043471
  174       -5.7851955274      -0.0000000015     1.000000     0.001454       0.0000041267
  175       -5.7851955287      -0.0000000013     1.000000     0.001462       0.0000039175
  176       -5.7851955299      -0.0000000012     1.000000     0.001449       0.0000037190
  177       -5.7851955310      -0.0000000011     1.000000     0.001462       0.0000035306
  178       -5.7851955320      -0.0000000010     1.000000     0.001456       0.0000033518
  179       -5.7851955329      -0.0000000009     1.000000     0.001461       0.0000031820
  180       -5.7851955337      -0.0000000008     1.000000     0.001448       0.0000030210
  181       -5.7851955344      -0.0000000007     1.000000     0.001462       0.0000028681
  182       -5.7851955350      -0.0000000007     1.000000     0.001452       0.0000027229
  183       -5.7851955356      -0.0000000006     1.000000     0.001468       0.0000025852
  184       -5.7851955362      -0.0000000005     1.000000     0.001458       0.0000024545
  185       -5.7851955366      -0.0000000005     1.000000     0.001461       0.0000023304
  186       -5.7851955371      -0.0000000004     1.000000     0.001458       0.0000022126
  187       -5.7851955375      -0.0000000004     1.000000     0.001468       0.0000021007
  188       -5.7851955378      -0.0000000004     1.000000     0.001453       0.0000019946
  189       -5.7851955382      -0.0000000003     1.000000     0.001459       0.0000018938
  190       -5.7851955384      -0.0000000003     1.000000     0.001454       0.0000017982
  191       -5.7851955387      -0.0000000003     1.000000     0.001461       0.0000017074
  192       -5.7851955389      -0.0000000002     1.000000     0.001458       0.0000016212
  193       -5.7851955392      -0.0000000002     1.000000     0.001454       0.0000015394
  194       -5.7851955393      -0.0000000002     1.000000     0.001455       0.0000014617
  195       -5.7851955395      -0.0000000002     1.000000     0.001453       0.0000013880
  196       -5.7851955397      -0.0000000002     1.000000     0.001458       0.0000013180
  197       -5.7851955398      -0.0000000001     1.000000     0.001448       0.0000012515
  198       -5.7851955399      -0.0000000001     1.000000     0.001461       0.0000011884
  199       -5.7851955401      -0.0000000001     1.000000     0.001452       0.0000011285
  200       -5.7851955402      -0.0000000001     1.000000     0.001456       0.0000010716
  201       -5.7851955403      -0.0000000001     1.000000     0.001453       0.0000010176
  202       -5.7851955403      -0.0000000001     1.000000     0.001459       0.0000009664
  
--------------------------------------------------
 Final SA-REKS(2,2) energy:      -5.78519554
  
 State     Energy      FON(1)    FON(2)   Spin
  PPS   -5.92507275   2.000000  0.000000  0.00
  OSS   -5.64531833   1.000000  1.000000  0.00
 Trip   -5.65423980   1.000000  1.000000  1.00
--------------------------------------------------
  
 Lagrangian Wab:  -0.00002073 -0.00002072
  
--------------------------------------------------
 SSR: 2SI-2SA-REKS(2,2) Hamiltonian matrix
               PPS           OSS
   PPS    -5.92507275   -0.00002932
   OSS    -0.00002932   -5.64531833
--------------------------------------------------
  
----------------------------------------------------------------
 SSR: 2SI-2SA-REKS(2,2) states
                    E_n       C_{PPS}    C_{OSS}
 SSR state  1   -5.92507276  -1.000000  -0.000105
 SSR state  2   -5.64531832   0.000105  -1.000000
----------------------------------------------------------------
 
 unrelaxed SSR FONs for S0:  2.000000  0.000000
 
Total Energy:                       -5.9250727559 H         -161.2294 eV
Extrapolated to 0:                   0.0000000000 H            0.0000 eV
Total Mermin free energy:            0.0000000000 H            0.0000 eV
Force related energy:                0.0000000000 H            0.0000 eV

 Time - getHellmannFeynmanGradientL =      0.00576186 seconds.
 Time - REKS_getSccSpinLRonSite =      0.00004196 seconds.
current indices:  1    1  2
 Time - get_Z_del_no_Hxc =      0.00092101 seconds.
 Time - REKS_get_Q1_del =      0.00020003 seconds.
 
  CG solver: Y initial guess                            time =       0.00138497
  CG solver: Iteration    1    eps =    0.000000339983  time =       0.00134301
  CG solver: Iteration    2    eps =    0.000000015356  time =       0.00133300
  CG solver: Iteration    3    eps =    0.000000002356  time =       0.00132608
  Convergence reached in CG solver after    3 iterations
  CG solver: converged R, Z, Q2 matrix                  time =       0.00115204
  Time - CG_grad =      0.00663090 seconds.
 
 Time - REKS_get_Q1_mat =      0.00007296 seconds.
 Time - REKS_RT_shift =      0.00870991 seconds.
 
--------------------------------------------------
 Gradient Information
--------------------------------------------------
 1 state (SSR)
     0.03954933     0.04048921    -0.01011110
    -0.04690208    -0.02520827    -0.01783829
     0.01541910    -0.01477526     0.00353969
     0.00274089    -0.01748715     0.00931056
    -0.00328743    -0.00297295     0.01150877
    -0.00751982     0.01995441     0.00359037
--------------------------------------------------
 
 
--------------------------------------------------------------------------------
DFTB+ running times                          cpu [s]             wall clock [s]
--------------------------------------------------------------------------------
SCC                                    +     0.31  ( 92.1%)      0.31  ( 92.0%)
      Sparse to dense                        0.01  (  3.1%)      0.01  (  3.2%)
      Dense to sparse                        0.03  (  9.1%)      0.03  (  8.7%)
      Range separated Hamiltonian            0.03  (  7.8%)      0.03  (  8.4%)
  Density matrix creation                    0.02  (  5.6%)      0.02  (  5.4%)
Post-SCC processing                    +     0.02  (  7.0%)      0.02  (  7.0%)
  Force calculation                          0.02  (  6.8%)      0.02  (  6.8%)
--------------------------------------------------------------------------------
Missing                                +     0.00  (  0.9%)      0.00  (  0.9%)
Total                                  =     0.33  (100.0%)      0.33  (100.0%)
--------------------------------------------------------------------------------
