     6
  Step:  1000            Position(A)                                  Velocity(au)
C        -0.69635829     0.00596004    -0.03743383     0.00007469     0.00010701    -0.00017313
C         0.65904132    -0.00828596    -0.02924107    -0.00004235    -0.00014121     0.00001057
H        -1.27654992     0.94151299    -0.21663875     0.00025685     0.00022563     0.00058569
H        -1.32434306    -0.86260419    -0.03338909    -0.00081017    -0.00069371     0.00093583
H         1.18884340     0.92246909    -0.21231494    -0.00062264     0.00128299     0.00020512
H         1.29923919    -0.94366208    -0.04437954     0.00079059    -0.00040741     0.00021048
