     6
  Step:     0            Position(A)                                  Velocity(au)
C        -0.69284974     0.00000000     0.00000000     0.00000000     0.00000000     0.00000000
C         0.66284974     0.00000000     0.00000000     0.00000000     0.00000000     0.00000000
H        -1.03381877     0.72280451    -0.32280655     0.00000000     0.00000000     0.00000000
H        -1.23381879    -0.72280451    -0.34280655     0.00000000     0.00000000     0.00000000
H         1.03381877     0.75280451    -0.32280655     0.00000000     0.00000000     0.00000000
H         1.03381877    -0.72280451    -0.31280655     0.00000000     0.00000000     0.00000000
     6
  Step:     1            Position(A)                                  Velocity(au)
C        -0.69279199    -0.00004823     0.00002804     0.00004206    -0.00003501     0.00002036
C         0.66277755     0.00001227     0.00003689    -0.00005258     0.00000888     0.00002681
H        -1.03428661     0.72377707    -0.32310173    -0.00034051     0.00070771    -0.00021433
H        -1.23400677    -0.72315149    -0.34284302    -0.00013714    -0.00025326    -0.00002647
H         1.03416751     0.75348114    -0.32299129     0.00025417     0.00049300    -0.00013434
H         1.03429783    -0.72367827    -0.31306383     0.00034884    -0.00063601    -0.00018690
     6
  Step:     2            Position(A)                                  Velocity(au)
C        -0.69261972    -0.00019150     0.00011136     0.00008340    -0.00006902     0.00004014
C         0.66256218     0.00004856     0.00014661    -0.00010429     0.00001738     0.00005295
H        -1.03568112     0.72667514    -0.32397879    -0.00067454     0.00140133    -0.00042259
H        -1.23456885    -0.72418966    -0.34295133    -0.00027295    -0.00050452    -0.00005215
H         1.03520887     0.75550081    -0.32354131     0.00050483     0.00097860    -0.00026567
H         1.03572667    -0.72628300    -0.31382877     0.00069168    -0.00126011    -0.00036887
     6
  Step:     3            Position(A)                                  Velocity(au)
C        -0.69233587    -0.00042570     0.00024760     0.00012334    -0.00010107     0.00005881
C         0.66220714     0.00010733     0.00032646    -0.00015434     0.00002516     0.00007779
H        -1.03797582     0.73144128    -0.32541298    -0.00099602     0.00206775    -0.00061914
H        -1.23549957    -0.72591080    -0.34312822    -0.00040611    -0.00075180    -0.00007624
H         1.03692853     0.75883334    -0.32444430     0.00074864     0.00144979    -0.00039112
H         1.03808076    -0.73057009    -0.31508123     0.00102285    -0.00186113    -0.00054127
     6
  Step:     4            Position(A)                                  Velocity(au)
C        -0.69194515    -0.00074429     0.00043301     0.00016128    -0.00013039     0.00007590
C         0.66171808     0.00018616     0.00057207    -0.00020197     0.00003193     0.00010079
H        -1.04112859     0.73798411    -0.32736502    -0.00129973     0.00269560    -0.00079918
H        -1.23678993    -0.72830141    -0.34336832    -0.00053538    -0.00099323    -0.00009803
H         1.03930336     0.76343003    -0.32568042     0.00098257     0.00190019    -0.00050812
H         1.04132089    -0.73646192    -0.31678910     0.00133742    -0.00242930    -0.00070012
     6
  Step:     5            Position(A)                                  Velocity(au)
C        -0.69145378    -0.00113883     0.00066271     0.00019673    -0.00015637     0.00009104
C         0.66110250     0.00028196     0.00087770    -0.00024660     0.00003749     0.00012150
H        -1.04508433     0.74618412    -0.32978387    -0.00158150     0.00327591    -0.00095899
H        -1.23842767    -0.73134300    -0.34366435    -0.00065960    -0.00122705    -0.00011683
H         1.04230244     0.76922593    -0.32722330     0.00120401     0.00232439    -0.00061450
H         1.04539539    -0.74385647    -0.31891034     0.00163132    -0.00295673    -0.00084224
     6
  Step:     6            Position(A)                                  Velocity(au)
C        -0.69086920    -0.00159949     0.00093091     0.00022929    -0.00017861     0.00010396
C         0.66036939     0.00039121     0.00123657    -0.00028773     0.00004173     0.00013958
H        -1.04977818     0.75590081    -0.33260994    -0.00183841     0.00380236    -0.00109607
H        -1.24039743    -0.73501245    -0.34400727    -0.00077771    -0.00145167    -0.00013205
H         1.04588837     0.77614264    -0.32904127     0.00141083     0.00271803    -0.00070859
H         1.05024293    -0.75263296    -0.32139550     0.00190156    -0.00343768    -0.00096539
     6
  Step:     7            Position(A)                                  Velocity(au)
C        -0.69019971    -0.00211567     0.00123130     0.00025872    -0.00019692     0.00011453
C         0.65952886     0.00051018     0.00164112    -0.00032503     0.00004461     0.00015484
H        -1.05513900     0.76698010    -0.33577853    -0.00206875     0.00427129    -0.00120913
H        -1.24268114    -0.73928249    -0.34438654    -0.00088878    -0.00166565    -0.00014318
H         1.05001862     0.78409145    -0.33109875     0.00160147     0.00307794    -0.00078920
H         1.05579548    -0.76265791    -0.32419030     0.00214626    -0.00386856    -0.00106828
     6
  Step:     8            Position(A)                                  Velocity(au)
C        -0.68945422    -0.00267652     0.00155728     0.00028484    -0.00021132     0.00012268
C         0.65859173     0.00063517     0.00208342    -0.00035831     0.00004617     0.00016717
H        -1.06109263     0.77926147    -0.33922296    -0.00227192     0.00468147    -0.00129796
H        -1.24525838    -0.74412225    -0.34479035    -0.00099206    -0.00186780    -0.00014982
H         1.05464717     0.79297661    -0.33335761     0.00177491     0.00340214    -0.00085566
H         1.06198129    -0.77379098    -0.32723817     0.00236449    -0.00424783    -0.00115048
     6
  Step:     9            Position(A)                                  Velocity(au)
C        -0.68864186    -0.00327144     0.00190225     0.00030761    -0.00022196     0.00012845
C         0.65756920     0.00076269     0.00255543    -0.00038748     0.00004652     0.00017660
H        -1.06756468     0.79258412    -0.34287740    -0.00244827     0.00503369    -0.00136326
H        -1.24810694    -0.74949792    -0.34520592    -0.00108697    -0.00205717    -0.00015165
H         1.05972602     0.80269851    -0.33577856     0.00193070     0.00368972    -0.00090775
H         1.06872743    -0.78589025    -0.33048251     0.00255623    -0.00457569    -0.00121230
     6
  Step:    10            Position(A)                                  Velocity(au)
C        -0.68777182    -0.00389045     0.00225980     0.00032706    -0.00022910     0.00013193
C         0.65647252     0.00088959     0.00304927    -0.00041257     0.00004579     0.00018320
H        -1.07448278     0.80679189    -0.34667895    -0.00259884     0.00533035    -0.00140639
H        -1.25120328    -0.75537340    -0.34561976    -0.00117313    -0.00223304    -0.00014848
H         1.06520661     0.81315651    -0.33832229     0.00206884     0.00394076    -0.00094565
H         1.07596190    -0.79881646    -0.33386853     0.00272215    -0.00485373    -0.00125468
     6
  Step:    11            Position(A)                                  Velocity(au)
C        -0.68685311    -0.00452443     0.00262383     0.00034326    -0.00023309     0.00013328
C         0.65531275     0.00101312     0.00355741    -0.00043370     0.00004414     0.00018714
H        -1.08177834     0.82173701    -0.35056925    -0.00272528     0.00557497    -0.00142918
H        -1.25452303    -0.76171092    -0.34601799    -0.00125027    -0.00239489    -0.00014020
H         1.07104099     0.82425142    -0.34095051     0.00218972     0.00415612    -0.00096987
H         1.08361546    -0.81243643    -0.33734463     0.00286350    -0.00508466    -0.00127893
     6
  Step:    12            Position(A)                                  Velocity(au)
C        -0.68589444    -0.00516529     0.00298874     0.00035636    -0.00023433     0.00013266
C         0.65410052     0.00113102     0.00407279    -0.00045103     0.00004175     0.00018862
H        -1.08938797     0.83728271    -0.35449543    -0.00282952     0.00577179    -0.00143371
H        -1.25804128    -0.76847161    -0.34638654    -0.00131819    -0.00254237    -0.00012679
H         1.07718271     0.83588727    -0.34362671     0.00229393     0.00433719    -0.00098117
H         1.09162306    -0.82662564    -0.34086332     0.00298192    -0.00527184    -0.00128668
     6
  Step:    13            Position(A)                                  Velocity(au)
C        -0.68490412    -0.00580604     0.00334939     0.00036650    -0.00023321     0.00013027
C         0.65284597     0.00124147     0.00458899    -0.00046477     0.00003878     0.00018785
H        -1.09725365     0.85330426    -0.35841056    -0.00291358     0.00592530    -0.00142219
H        -1.26173253    -0.77561570    -0.34671146    -0.00137680    -0.00267526    -0.00010833
H         1.08358703     0.84797251    -0.34631675     0.00238224     0.00448580    -0.00098048
H         1.09992424    -0.84126933    -0.34438179     0.00307913    -0.00541897    -0.00127967
     6
  Step:    14            Position(A)                                  Velocity(au)
C        -0.68388996    -0.00644076     0.00370119     0.00037387    -0.00023012     0.00012629
C         0.65155858     0.00134309     0.00510018    -0.00047516     0.00003537     0.00018508
H        -1.10532303     0.86968951    -0.36227372    -0.00297966     0.00604016    -0.00139678
H        -1.26557130    -0.78310321    -0.34697905    -0.00142620    -0.00279361    -0.00008496
H         1.09021173     0.86042113    -0.34898921     0.00245567     0.00460412    -0.00096886
H         1.10846353    -0.85626321    -0.34786212     0.00315715    -0.00553001    -0.00125967
     6
  Step:    15            Position(A)                                  Velocity(au)
C        -0.68285932    -0.00706461     0.00404008     0.00037865    -0.00022543     0.00012092
C         0.65024720     0.00143491     0.00560123    -0.00048245     0.00003166     0.00018054
H        -1.11355008     0.88633926    -0.36604985    -0.00302980     0.00612085    -0.00135953
H        -1.26953272    -0.79089458    -0.34717613    -0.00146669    -0.00289765    -0.00005687
H         1.09701766     0.87315350    -0.35161564     0.00251541     0.00469455    -0.00094737
H         1.11719140    -0.87151419    -0.35127120     0.00321790    -0.00560884    -0.00122842
     6
  Step:    16            Position(A)                                  Velocity(au)
C        -0.68181901    -0.00767368     0.00436250     0.00038099    -0.00021940     0.00011430
C         0.64891995     0.00151628     0.00608761    -0.00048687     0.00002775     0.00017446
H        -1.12189373     0.90316584    -0.36970931    -0.00306544     0.00617061    -0.00131199
H        -1.27359294    -0.79895114    -0.34729011    -0.00149861    -0.00298774    -0.00002432
H         1.10396910     0.88609671    -0.35417060     0.00256266     0.00475952    -0.00091713
H         1.12606298    -0.88693921    -0.35458061     0.00326296    -0.00565874    -0.00118741
     6
  Step:    17            Position(A)                                  Velocity(au)
C        -0.68077557    -0.00826454     0.00466522     0.00038097    -0.00021212     0.00010653
C         0.64758442     0.00158670     0.00655536    -0.00048855     0.00002363     0.00016696
H        -1.13031566     0.92008775    -0.37322545    -0.00308730     0.00619098    -0.00125490
H        -1.27772896    -0.80723523    -0.34730916    -0.00152221    -0.00306421     0.00001241
H         1.11103342     0.89918442    -0.35663161     0.00259818     0.00480082    -0.00087898
H         1.13503730    -0.90246311    -0.35776543     0.00329328    -0.00568157    -0.00113747
     6
  Step:    18            Position(A)                                  Velocity(au)
C        -0.67973539    -0.00883380     0.00494514     0.00037864    -0.00020362     0.00009766
C         0.64624794     0.00164551     0.00700076    -0.00048756     0.00001929     0.00015813
H        -1.13877886     0.93702574    -0.37657263    -0.00309563     0.00618270    -0.00118867
H        -1.28191823    -0.81571002    -0.34722226    -0.00153768    -0.00312735     0.00005306
H         1.11817913     0.91235352    -0.35897794     0.00262222     0.00481920    -0.00083335
H         1.14407468    -0.91801302    -0.36080169     0.00330907    -0.00567800    -0.00107896
     6
  Step:    19            Position(A)                                  Velocity(au)
C        -0.67870472    -0.00937821     0.00519933     0.00037404    -0.00019400     0.00008774
C         0.64491781     0.00169219     0.00742019    -0.00048394     0.00001477     0.00014800
H        -1.14724639     0.95390234    -0.37972658    -0.00309075     0.00614669    -0.00111386
H        -1.28613887    -0.82433942    -0.34701896    -0.00154517    -0.00317729     0.00009751
H         1.12537496     0.92554175    -0.36118942     0.00263495     0.00481508    -0.00078049
H         1.15313538    -0.93351737    -0.36366649     0.00331057    -0.00564874    -0.00101230
     6
  Step:    20            Position(A)                                  Velocity(au)
C        -0.67768968    -0.00989485     0.00542501     0.00007766    -0.00003878     0.00001625
C         0.64360115     0.00172630     0.00781021    -0.00010103     0.00000214     0.00002890
H        -1.15568287     0.97064338    -0.38266458    -0.00064990     0.00128662    -0.00021803
H        -1.29036915    -0.83308733    -0.34668894    -0.00032667    -0.00067966     0.00003081
H         1.13259030     0.93868831    -0.36324662     0.00055756     0.00101273    -0.00015240
H         1.16218097    -0.94890729    -0.36633818     0.00069750    -0.00118314    -0.00019835
     6
  Step:    21            Position(A)                                  Velocity(au)
C        -0.67748812    -0.00998568     0.00545388     0.00006954    -0.00002757     0.00000477
C         0.64333508     0.00172572     0.00787292    -0.00009332    -0.00000257     0.00001685
H        -1.15742788     0.97405897    -0.38314237    -0.00062514     0.00120889    -0.00013068
H        -1.29125654    -0.83498722    -0.34653630    -0.00032151    -0.00070845     0.00008121
H         1.13410988     0.94140741    -0.36357698     0.00055270     0.00097374    -0.00008855
H         1.16406255    -0.95205279    -0.36677393     0.00067728    -0.00111499    -0.00011963
     6
  Step:    22            Position(A)                                  Velocity(au)
C        -0.67730936    -0.01004563     0.00545112     0.00006100    -0.00001621    -0.00000688
C         0.64309078     0.00171223     0.00790236    -0.00008512    -0.00000729     0.00000458
H        -1.15910188     0.97725508    -0.38337931    -0.00059805     0.00112631    -0.00004199
H        -1.29212753    -0.83696200    -0.34624480    -0.00031468    -0.00073442     0.00013235
H         1.13561314     0.94401393    -0.36373091     0.00054567     0.00093050    -0.00002342
H         1.16588520    -0.95500543    -0.36699247     0.00065448    -0.00104227    -0.00003958
     6
  Step:    23            Position(A)                                  Velocity(au)
C        -0.67715451    -0.01007436     0.00541627     0.00005207    -0.00000475    -0.00001869
C         0.64286954     0.00168583     0.00789797    -0.00007648    -0.00001201    -0.00000788
H        -1.16069877     0.98021901    -0.38337201    -0.00056884     0.00103929     0.00004785
H        -1.29297757    -0.83900394    -0.34581243    -0.00030618    -0.00075756     0.00018422
H         1.13709428     0.94649655    -0.36370506     0.00053659     0.00088325     0.00004287
H         1.16764208    -0.95775320    -0.36699039     0.00062927    -0.00096534     0.00004163
     6
  Step:    24            Position(A)                                  Velocity(au)
C        -0.67702459    -0.01007160     0.00534893     0.00004278     0.00000679    -0.00003063
C         0.64267252     0.00164656     0.00785925    -0.00006743    -0.00001670    -0.00002051
H        -1.16221298     0.98293920    -0.38311761    -0.00053769     0.00094827     0.00013862
H        -1.29380211    -0.84110527    -0.34523726    -0.00029603    -0.00077785     0.00023678
H         1.13854788     0.94884462    -0.36349643     0.00052558     0.00083223     0.00011020
H         1.16932683    -0.96028509    -0.36676476     0.00060183    -0.00088457     0.00012383
     6
  Step:    25            Position(A)                                  Velocity(au)
C        -0.67692051    -0.01003721     0.00524875     0.00003318     0.00001837    -0.00004269
C         0.64250075     0.00159449     0.00778578    -0.00005803    -0.00002137    -0.00003329
H        -1.16363953     0.98540531    -0.38261385    -0.00050483     0.00085369     0.00023012
H        -1.29459662    -0.84325820    -0.34451743    -0.00028423    -0.00079530     0.00028999
H         1.13996882     0.95104822    -0.36310234     0.00051277     0.00077772     0.00017844
H         1.17093363    -0.96259114    -0.36631315     0.00057236    -0.00080036     0.00020682
     6
  Step:    26            Position(A)                                  Velocity(au)
C        -0.67684310    -0.00997114     0.00511543     0.00002330     0.00002994    -0.00005485
C         0.64235514     0.00152970     0.00767720    -0.00004832    -0.00002599    -0.00004618
H        -1.16497402     0.98760823    -0.38185902    -0.00047048     0.00075601     0.00032215
H        -1.29535665    -0.84545497    -0.34365122    -0.00027081    -0.00080992     0.00034382
H         1.14135234     0.95309813    -0.36252047     0.00049828     0.00071997     0.00024747
H         1.17245721    -0.96466246    -0.36563359     0.00054108    -0.00071311     0.00029045
     6
  Step:    27            Position(A)                                  Velocity(au)
C        -0.67679307    -0.00987346     0.00494875     0.00001318     0.00004147    -0.00006708
C         0.64223649     0.00145233     0.00753322    -0.00003834    -0.00003057    -0.00005916
H        -1.16621269     0.98954011    -0.38085197    -0.00043488     0.00065570     0.00041448
H        -1.29607775    -0.84768782    -0.34263700    -0.00025579    -0.00082171     0.00039822
H         1.14269403     0.95498592    -0.36174889     0.00048225     0.00065928     0.00031713
H         1.17389292    -0.96649131    -0.36472462     0.00050822    -0.00062324     0.00037451
     6
  Step:    28            Position(A)                                  Velocity(au)
C        -0.67677102    -0.00974431     0.00474853     0.00000285     0.00005293    -0.00007937
C         0.64214547     0.00136252     0.00735364    -0.00002814    -0.00003508    -0.00007221
H        -1.16735245     0.99119442    -0.37959212    -0.00039825     0.00055323     0.00050693
H        -1.29675562    -0.84994909    -0.34147326    -0.00023921    -0.00083072     0.00045314
H         1.14398985     0.95670391    -0.36078601     0.00046481     0.00059595     0.00038731
H         1.17523675    -0.96807110    -0.36358528     0.00047400    -0.00053117     0.00045885
     6
  Step:    29            Position(A)                                  Velocity(au)
C        -0.67677747    -0.00958395     0.00451465    -0.00000764     0.00006428    -0.00009169
C         0.64208258     0.00126046     0.00713830    -0.00001778    -0.00003953    -0.00008529
H        -1.16839083     0.99256586    -0.37807944    -0.00036084     0.00044906     0.00059929
H        -1.29738603    -0.85223124    -0.34015865    -0.00022111    -0.00083700     0.00050853
H         1.14523617     0.95824528    -0.35963062     0.00044612     0.00053026     0.00045785
H         1.17648531    -0.96939640    -0.36221509     0.00043864    -0.00043731     0.00054326
     6
  Step:    30            Position(A)                                  Velocity(au)
C        -0.67681278    -0.00939272     0.00424705    -0.00001824     0.00007549    -0.00010402
C         0.64204825     0.00114633     0.00688716    -0.00000729    -0.00004389    -0.00009839
H        -1.16932597     0.99365041    -0.37631447    -0.00032286     0.00034364     0.00069135
H        -1.29796494    -0.85452685    -0.33869198    -0.00020157    -0.00084061     0.00056433
H         1.14642977     0.95960402    -0.35828191     0.00042633     0.00046254     0.00052863
H         1.17763577    -0.97046288    -0.36061406     0.00040236    -0.00034209     0.00062758
     6
  Step:    31            Position(A)                                  Velocity(au)
C        -0.67687725    -0.00917107     0.00394574    -0.00002893     0.00008652    -0.00011634
C         0.64204271     0.00102039     0.00660021     0.00000327    -0.00004817    -0.00011147
H        -1.17015661     0.99444530    -0.37429827    -0.00028454     0.00023744     0.00078293
H        -1.29848847    -0.85682872    -0.33707219    -0.00018065    -0.00084161     0.00062048
H         1.14756788     0.96077503    -0.35673943     0.00040562     0.00039312     0.00059949
H         1.17868593    -0.97126736    -0.35878269     0.00036540    -0.00024591     0.00071163
     6
  Step:    32            Position(A)                                  Velocity(au)
C        -0.67697101    -0.00891952     0.00361077    -0.00003965     0.00009734    -0.00012862
C         0.64206611     0.00088287     0.00627753     0.00001384    -0.00005236    -0.00012450
H        -1.17088216     0.99494902    -0.37203247    -0.00024610     0.00013092     0.00087381
H        -1.29895296    -0.85912983    -0.33529841    -0.00015843    -0.00084010     0.00067692
H         1.14864819     0.96175407    -0.35500314     0.00038414     0.00032231     0.00067031
H         1.17963421    -0.97180783    -0.35672197     0.00032796    -0.00014920     0.00079524
     6
  Step:    33            Position(A)                                  Velocity(au)
C        -0.67709412    -0.00863868     0.00324226    -0.00005037     0.00010792    -0.00014085
C         0.64211842     0.00073404     0.00591927     0.00002439    -0.00005643    -0.00013747
H        -1.17150259     0.99516135    -0.36951919    -0.00020778     0.00002455     0.00096382
H        -1.29935496    -0.86142340    -0.33336995    -0.00013499    -0.00083615     0.00073358
H         1.14966885     0.96253780    -0.35307336     0.00036207     0.00025044     0.00074093
H         1.18047962    -0.97208338    -0.35443335     0.00029028    -0.00005237     0.00087822
     6
  Step:    34            Position(A)                                  Velocity(au)
C        -0.67724650    -0.00832928     0.00284041    -0.00006103     0.00011822    -0.00015301
C         0.64219950     0.00057422     0.00552566     0.00003486    -0.00006040    -0.00015035
H        -1.17201854     0.99508332    -0.36676112    -0.00016980    -0.00008120     0.00105276
H        -1.29969126    -0.86370292    -0.33128630    -0.00011042    -0.00082986     0.00079039
H         1.15062844     0.96312377    -0.35095080     0.00033957     0.00017784     0.00081123
H         1.18122179    -0.97209428    -0.35191877     0.00025257     0.00004415     0.00096042
     6
  Step:    35            Position(A)                                  Velocity(au)
C        -0.67742793    -0.00799208     0.00240544    -0.00007160     0.00012822    -0.00016506
C         0.64230906     0.00040372     0.00509699     0.00004520    -0.00006424    -0.00016310
H        -1.17243125     0.99471723    -0.36376142    -0.00013239    -0.00018589     0.00114044
H        -1.29995885    -0.86596209    -0.32904714    -0.00008479    -0.00082132     0.00084728
H         1.15152601     0.96351043    -0.34863655     0.00031679     0.00010483     0.00088107
H         1.18186097    -0.97184192    -0.34918061     0.00021506     0.00013995     0.00104166
     6
  Step:    36            Position(A)                                  Velocity(au)
C        -0.67763811    -0.00762799     0.00193765    -0.00008203     0.00013789    -0.00017700
C         0.64244668     0.00022288     0.00463361     0.00005535    -0.00006795    -0.00017572
H        -1.17274260     0.99406664    -0.36052379    -0.00009578    -0.00028904     0.00122669
H        -1.30015499    -0.86819492    -0.32665236    -0.00005820    -0.00081065     0.00090417
H         1.15236105     0.96369709    -0.34613204     0.00029391     0.00003173     0.00095031
H         1.18239803    -0.97132886    -0.34622171     0.00017799     0.00023461     0.00112178
     6
  Step:    37            Position(A)                                  Velocity(au)
C        -0.67787659    -0.00723795     0.00143741    -0.00009228     0.00014718    -0.00018879
C         0.64261180     0.00003206     0.00413596     0.00006528    -0.00007153    -0.00018816
H        -1.17295509     0.99313641    -0.35705239    -0.00006020    -0.00039019     0.00131132
H        -1.30027718    -0.87039571    -0.32410203    -0.00003075    -0.00079795     0.00096100
H         1.15313349     0.96368399    -0.34343911     0.00027110    -0.00004111     0.00101882
H         1.18283442    -0.97055876    -0.34304535     0.00014156     0.00032773     0.00120062
     6
  Step:    38            Position(A)                                  Velocity(au)
C        -0.67814281    -0.00682300     0.00090512    -0.00010230     0.00015609    -0.00020042
C         0.64280372    -0.00016833     0.00360452     0.00007493    -0.00007496    -0.00020041
H        -1.17307183     0.99193262    -0.35335188    -0.00002587    -0.00048888     0.00139417
H        -1.30032319    -0.87255907    -0.32139645    -0.00000254    -0.00078333     0.00101768
H         1.15384373     0.96347223    -0.34055990     0.00024851    -0.00011339     0.00108647
H         1.18317225    -0.96953645    -0.33965523     0.00010601     0.00041887     0.00127804
     6
  Step:    39            Position(A)                                  Velocity(au)
C        -0.67843608    -0.00638428     0.00034126    -0.00011204     0.00016456    -0.00021187
C         0.64302162    -0.00037790     0.00303985     0.00008425    -0.00007823    -0.00021245
H        -1.17309658     0.99046264    -0.34942737     0.00000697    -0.00058464     0.00147507
H        -1.30029109    -0.87467994    -0.31853610     0.00002633    -0.00076693     0.00107415
H         1.15449262     0.96306380    -0.33749694     0.00022631    -0.00018479     0.00115315
H         1.18341420    -0.96826786    -0.33605547     0.00007155     0.00050764     0.00135387
     6
  Step:    40            Position(A)                                  Velocity(au)
C        -0.67875559    -0.00592297    -0.00025364    -0.00009291     0.00013200    -0.00017065
C         0.64326452    -0.00059620     0.00244258     0.00007128    -0.00006221    -0.00017152
H        -1.17303373     0.98873508    -0.34528441     0.00002913    -0.00051783     0.00118847
H        -1.30017921    -0.87675359    -0.31552170     0.00004264    -0.00057277     0.00086453
H         1.15508145     0.96246159    -0.33425305     0.00015654    -0.00019501     0.00093216
H         1.18356357    -0.96676006    -0.33225060     0.00002938     0.00045404     0.00109220
     6
  Step:    41            Position(A)                                  Velocity(au)
C        -0.67902232    -0.00555136    -0.00073554    -0.00010202     0.00013960    -0.00018170
C         0.64347140    -0.00077047     0.00195757     0.00007985    -0.00006517    -0.00018309
H        -1.17291275     0.98719518    -0.34192817     0.00005855    -0.00060683     0.00126526
H        -1.30002202    -0.87829409    -0.31308098     0.00007246    -0.00055335     0.00092037
H         1.15548037     0.96183328    -0.33161508     0.00013553    -0.00026385     0.00099667
H         1.18359958    -0.96540291    -0.32916375    -0.00000241     0.00053722     0.00116467
     6
  Step:    42            Position(A)                                  Velocity(au)
C        -0.67931356    -0.00515949    -0.00124742    -0.00011081     0.00014680    -0.00019257
C         0.64370126    -0.00095265     0.00144119     0.00008806    -0.00006800    -0.00019445
H        -1.17271352     0.98541617    -0.33836443     0.00008626    -0.00069248     0.00134016
H        -1.29978291    -0.87977997    -0.31048799     0.00010250    -0.00053289     0.00097585
H         1.15582268     0.96101851    -0.32880203     0.00011522    -0.00033122     0.00106014
H         1.18355041    -0.96382188    -0.32588075    -0.00003281     0.00061758     0.00123558
     6
  Step:    43            Position(A)                                  Velocity(au)
C        -0.67962839    -0.00474849    -0.00178873    -0.00011925     0.00015358    -0.00020322
C         0.64395301    -0.00114235     0.00089406     0.00009585    -0.00007067    -0.00020557
H        -1.17244097     0.98340783    -0.33459851     0.00011207    -0.00077435     0.00141305
H        -1.29946140    -0.88120858    -0.30774382     0.00013267    -0.00051153     0.00103090
H         1.15611054     0.96002175    -0.32581690     0.00009578    -0.00039681     0.00112247
H         1.18342014    -0.96202521    -0.32240605    -0.00006162     0.00069474     0.00130482
     6
  Step:    44            Position(A)                                  Velocity(au)
C        -0.67996577    -0.00431953    -0.00235889    -0.00012729     0.00015992    -0.00021366
C         0.64422546    -0.00133916     0.00031687     0.00010318    -0.00007319    -0.00021643
H        -1.17210060     0.98118106    -0.33063615     0.00013576    -0.00085203     0.00148377
H        -1.29905733    -0.88257766    -0.30484975     0.00016283    -0.00048942     0.00108545
H         1.15634654     0.95884828    -0.32266298     0.00007736    -0.00046032     0.00118354
H         1.18321340    -0.96002217    -0.31874442    -0.00008864     0.00076833     0.00137224
     6