     6
  Step:   400            Position(A)                                  Velocity(au)
C         6.69139130     7.51396810     7.46485679     0.00013391     0.00015209     0.00006024
N         8.18493212     7.37201450     7.47042119     0.00001216     0.00002171     0.00003510
H         6.17239059     8.29903600     6.87473504    -0.00048374    -0.00044701    -0.00022308
H         6.28398982     7.72954345     8.49263621    -0.00181393    -0.00071585    -0.00012481
H         8.47320851     7.40449627     8.48153823     0.00065587    -0.00036897    -0.00026462
H         8.82032405     7.97153350     6.89763957    -0.00012173    -0.00058153    -0.00059603
