     6
  Step:     0            Position(A)                                  Velocity(au)
C         6.80883156     7.58463552     7.49857496    -0.00009407    -0.00001176    -0.00008046
N         8.08208443     7.40496134     7.47955237     0.00009165     0.00017824     0.00004090
H         6.22484029     7.96852713     6.64304411    -0.00086291    -0.00001444     0.00014276
H         6.29825834     7.20020461     8.37774242     0.00119435    -0.00019678     0.00005599
H         8.49203870     7.15347109     8.39401177    -0.00077470    -0.00097156     0.00038783
H         8.76298922     7.78160133     6.80691254     0.00029745    -0.00115008    -0.00021296
     6
  Step:     1            Position(A)                                  Velocity(au)
C         6.80848639     7.58461337     7.49835099    -0.00015829    -0.00000443    -0.00008343
N         8.08241007     7.40543171     7.47966454     0.00014647     0.00016579     0.00004121
H         6.22250562     7.96852015     6.64342236    -0.00084426     0.00000902     0.00013443
H         6.30148026     7.19967343     8.37796095     0.00116075    -0.00019196     0.00010460
H         8.48995183     7.15083122     8.39509069    -0.00075148    -0.00095896     0.00040029
H         8.76379535     7.77851750     6.80630084     0.00029262    -0.00110520    -0.00023469
     6
  Step:     2            Position(A)                                  Velocity(au)
C         6.80796583     7.58461127     7.49811865    -0.00022228     0.00000290    -0.00008657
N         8.08288553     7.40586806     7.47977778     0.00020115     0.00015337     0.00004168
H         6.22022286     7.96857648     6.64377934    -0.00082501     0.00003184     0.00012722
H         6.30460672     7.19915471     8.37831448     0.00112460    -0.00018761     0.00015456
H         8.48792870     7.14822632     8.39620107    -0.00072807    -0.00094600     0.00041082
H         8.76458961     7.77555672     6.80562895     0.00028879    -0.00106016    -0.00025695
     6
  Step:     3            Position(A)                                  Velocity(au)
C         6.80727068     7.58462921     7.49787750    -0.00028591     0.00001021    -0.00008986
N         8.08351023     7.40627052     7.47989249     0.00025557     0.00014102     0.00004229
H         6.21799347     7.96869430     6.64411813    -0.00080528     0.00005398     0.00012112
H         6.30763099     7.19864733     8.37880630     0.00108608    -0.00018363     0.00020556
H         8.48596985     7.14565732     8.39733754    -0.00070444    -0.00093273     0.00041937
H         8.76537478     7.77271923     6.80489550     0.00028600    -0.00101509    -0.00027970
     6
  Step:     4            Position(A)                                  Velocity(au)
C         6.80640212     7.58466712     7.49762717    -0.00034905     0.00001749    -0.00009327
N         8.08428327     7.40663932     7.48000906     0.00030959     0.00012876     0.00004305
H         6.21581861     7.96887171     6.64444179    -0.00078518     0.00007541     0.00011614
H         6.31054677     7.19815039     8.37943871     0.00104535    -0.00017993     0.00025721
H         8.48407596     7.14312502     8.39849469    -0.00068054    -0.00091918     0.00042594
H         8.76615379     7.77000494     6.80409922     0.00028429    -0.00097014    -0.00030289
     6
  Step:     5            Position(A)                                  Velocity(au)
C         6.80536167     7.58472484     7.49736739    -0.00041156     0.00002469    -0.00009676
N         8.08520345     7.40697476     7.48012792     0.00036311     0.00011663     0.00004395
H         6.21369913     7.96910672     6.64475333    -0.00076485     0.00009609     0.00011224
H         6.31334826     7.19766326     8.38021304     0.00100259    -0.00017642     0.00030916
H         8.48224784     7.14063010     8.39966710    -0.00065632    -0.00090542     0.00043052
H         8.76692960     7.76741333     6.80323894     0.00028368    -0.00092544    -0.00032648
     6
  Step:     6            Position(A)                                  Velocity(au)
C         6.80415120     7.58480218     7.49709795    -0.00047332     0.00003182    -0.00010032
N         8.08626922     7.40727722     7.48024946     0.00041601     0.00010466     0.00004501
H         6.21163549     7.96939723     6.64505564    -0.00074440     0.00011598     0.00010936
H         6.31603017     7.19718552     8.38112956     0.00095799    -0.00017303     0.00036103
H         8.48048640     7.13817307     8.40084933    -0.00063175    -0.00089151     0.00043313
H         8.76770529     7.76494348     6.80231361     0.00028420    -0.00088116    -0.00035045
     6
  Step:     7            Position(A)                                  Velocity(au)
C         6.80277295     7.58489885     7.49681873    -0.00053421     0.00003883    -0.00010390
N         8.08747869     7.40754719     7.48037410     0.00046816     0.00009288     0.00004622
H         6.20962783     7.96974104     6.64535143    -0.00072397     0.00013506     0.00010742
H         6.31858774     7.19671692     8.38218760     0.00091175    -0.00016970     0.00041247
H         8.47879268     7.13575423     8.40203598    -0.00060678    -0.00087752     0.00043377
H         8.76848396     7.76259407     6.80132227     0.00028585    -0.00083744    -0.00037475
     6
  Step:     8            Position(A)                                  Velocity(au)
C         6.80122949     7.58501455     7.49652970    -0.00059409     0.00004572    -0.00010747
N         8.08882968     7.40778523     7.48050227     0.00051944     0.00008132     0.00004759
H         6.20767592     7.97013591     6.64564317    -0.00070369     0.00015331     0.00010633
H         6.32101674     7.19625739     8.38338547     0.00086407    -0.00016637     0.00046314
H         8.47716780     7.13337372     8.40322172    -0.00058138    -0.00086352     0.00043248
H         8.76926870     7.76036335     6.80026400     0.00028864    -0.00079442    -0.00039937
     6
  Step:     9            Position(A)                                  Velocity(au)
C         6.79952376     7.58514888     7.49623093    -0.00065282     0.00005245    -0.00011101
N         8.09031965     7.40799197     7.48063437     0.00056975     0.00007001     0.00004910
H         6.20577921     7.97057953     6.64593298    -0.00068367     0.00017071     0.00010594
H         6.32331355     7.19580702     8.38472061     0.00081517    -0.00016299     0.00051271
H         8.47561297     7.13103146     8.40440129    -0.00055553    -0.00084958     0.00042928
H         8.77006262     7.75824923     6.79913799     0.00029256    -0.00075223    -0.00042429
     6
  Step:    10            Position(A)                                  Velocity(au)
C         6.79765907     7.58530142     7.49592256    -0.00071028     0.00005902    -0.00011447
N         8.09194575     7.40816814     7.48077082     0.00061895     0.00005898     0.00005077
H         6.20393675     7.97106959     6.64622261    -0.00066406     0.00018728     0.00010611
H         6.32547511     7.19536598     8.38618962     0.00076527    -0.00015952     0.00056091
H         8.47412946     7.12872719     8.40556957    -0.00052922    -0.00083576     0.00042424
H         8.77086876     7.75624925     6.79794347     0.00029756    -0.00071098    -0.00044948
     6
  Step:    11            Position(A)                                  Velocity(au)
C         6.79563905     7.58547168     7.49560485    -0.00076635     0.00006540    -0.00011783
N         8.09370481     7.40831452     7.48091203     0.00066693     0.00004824     0.00005258
H         6.20214730     7.97160383     6.64651331    -0.00064497     0.00020305     0.00010664
H         6.32749900     7.19493459     8.38778834     0.00071460    -0.00015591     0.00060745
H         8.47271857     7.12646049     8.40672158    -0.00050241    -0.00082214     0.00041743
H         8.77169006     7.75436070     6.79667971     0.00030363    -0.00067078    -0.00047491
     6
  Step:    12            Position(A)                                  Velocity(au)
C         6.79346772     7.58565911     7.49527810    -0.00082090     0.00007157    -0.00012106
N         8.09559334     7.40843196     7.48105840     0.00071359     0.00003782     0.00005454
H         6.20040927     7.97218010     6.64680585    -0.00062652     0.00021805     0.00010736
H         6.32938340     7.19451326     8.38951191     0.00066337    -0.00015213     0.00065212
H         8.47138164     7.12423075     8.40785260    -0.00047512    -0.00080875     0.00040892
H         8.77252939     7.75258061     6.79534608     0.00031072    -0.00063169    -0.00050056
     6
  Step:    13            Position(A)                                  Velocity(au)
C         6.79114937     7.58586311     7.49494274    -0.00087381     0.00007751    -0.00012412
N         8.09760758     7.40852136     7.48121032     0.00075881     0.00002774     0.00005664
H         6.19872074     7.97279637     6.64710048    -0.00060882     0.00023234     0.00010806
H         6.33112712     7.19410255     8.39135491     0.00061182    -0.00014812     0.00069469
H         8.47012005     7.12203726     8.40895809    -0.00044732    -0.00079564     0.00039882
H         8.77338945     7.75090585     6.79394202     0.00031876    -0.00059376    -0.00052640
     6
  Step:    14            Position(A)                                  Velocity(au)
C         6.78868866     7.58608301     7.49459925    -0.00092497     0.00008319    -0.00012699
N         8.09974347     7.40858367     7.48136816     0.00080251     0.00001801     0.00005887
H         6.19707952     7.97345083     6.64739686    -0.00059198     0.00024602     0.00010855
H         6.33272959     7.19370314     8.39331133     0.00056018    -0.00014384     0.00073499
H         8.46893516     7.11987922     8.41003382    -0.00041901    -0.00078283     0.00038721
H         8.77427277     7.74933320     6.79246708     0.00032770    -0.00055703    -0.00055237
     6
  Step:    15            Position(A)                                  Velocity(au)
C         6.78609051     7.58631810     7.49424819    -0.00097428     0.00008860    -0.00012965
N         8.10199668     7.40861985     7.48153229     0.00084458     0.00000864     0.00006122
H         6.19548309     7.97414190     6.64769413    -0.00057610     0.00025917     0.00010862
H         6.33419087     7.19331588     8.39537473     0.00050866    -0.00013921     0.00077285
H         8.46782839     7.11775576     8.41107585    -0.00039018    -0.00077036     0.00037422
H         8.77518173     7.74785934     6.79092099     0.00033747    -0.00052151    -0.00057841
     6
  Step:    16            Position(A)                                  Velocity(au)
C         6.78336011     7.58656758     7.49389019    -0.00102165     0.00009371    -0.00013206
N         8.10436267     7.40863091     7.48170301     0.00088495    -0.00000036     0.00006369
H         6.19392868     7.97486827     6.64799091    -0.00056129     0.00027188     0.00010809
H         6.33551159     7.19294178     8.39753821     0.00045749    -0.00013417     0.00080811
H         8.46680118     7.11566597     8.41208053    -0.00036082    -0.00075821     0.00035996
H         8.77611848     7.74648093     6.78930365     0.00034799    -0.00048722    -0.00060444
     6
  Step:    17            Position(A)                                  Velocity(au)
C         6.78050288     7.58683062     7.49352594    -0.00106701     0.00009850    -0.00013421
N         8.10683666     7.40861786     7.48188062     0.00092354    -0.00000899     0.00006626
H         6.19241324     7.97562889     6.64828530    -0.00054764     0.00028427     0.00010679
H         6.33669295     7.19258205     8.39979451     0.00040684    -0.00012866     0.00084066
H         8.46585497     7.11360893     8.41304455    -0.00033092    -0.00074640     0.00034455
H         8.77708497     7.74519464     6.78761518     0.00035918    -0.00045413    -0.00063038
     6
  Step:    18            Position(A)                                  Velocity(au)
C         6.77752444     7.58710631     7.49315619    -0.00111028     0.00010296    -0.00013607
N         8.10941373     7.40858173     7.48206540     0.00096031    -0.00001725     0.00006892
H         6.19093348     7.97642303     6.64857494    -0.00053524     0.00029645     0.00010454
H         6.33773667     7.19223808     8.40213601     0.00035692    -0.00012261     0.00087037
H         8.46499128     7.11158372     8.41396498    -0.00030048    -0.00073494     0.00032814
H         8.77808291     7.74399716     6.78585593     0.00037095    -0.00042225    -0.00065616
     6
  Step:    19            Position(A)                                  Velocity(au)
C         6.77443056     7.58739372     7.49278174    -0.00115142     0.00010706    -0.00013763
N         8.11208880     7.40852354     7.48225755     0.00099521    -0.00002512     0.00007165
H         6.18948583     7.97725024     6.64885702    -0.00052418     0.00030852     0.00010119
H         6.33864496     7.19191146     8.40455482     0.00030786    -0.00011594     0.00089716
H         8.46421161     7.10958940     8.41483926    -0.00026946    -0.00072381     0.00031087
H         8.77911381     7.74288522     6.78402651     0.00038323    -0.00039156    -0.00068166
     6
  Step:    20            Position(A)                                  Velocity(au)
C         6.77122714     7.58769186     7.49240346    -0.00050274     0.00004679    -0.00005865
N         8.11485670     7.40844433     7.48245725     0.00043425    -0.00001378     0.00003144
H         6.18806651     7.97811039     6.64912831    -0.00021732     0.00013540     0.00004079
H         6.33942037     7.19160391     8.40704281     0.00010973    -0.00004587     0.00038895
H         8.46351754     7.10762502     8.41566524    -0.00010046    -0.00030114     0.00012370
H         8.78017891     7.74185559     6.78212778     0.00016721    -0.00015291    -0.00029850
     6
  Step:    21            Position(A)                                  Velocity(au)
C         6.76980065     7.58782468     7.49224159    -0.00054008     0.00005026    -0.00005966
N         8.11608793     7.40839667     7.48254707     0.00046582    -0.00002100     0.00003425
H         6.18748426     7.97849719     6.64923262    -0.00020883     0.00014752     0.00003520
H         6.33965537     7.19148890     8.40813694     0.00006243    -0.00003807     0.00041057
H         8.46328644     7.10681600     8.41597850    -0.00006843    -0.00029063     0.00010532
H         8.78065380     7.74147700     6.78127740     0.00018015    -0.00012424    -0.00032330
     6
  Step:    22            Position(A)                                  Velocity(au)
C         6.76827345     7.58796674     7.49207717    -0.00057637     0.00005355    -0.00006051
N         8.11740429     7.40832948     7.48264459     0.00049649    -0.00002805     0.00003707
H         6.18692418     7.97891723     6.64932073    -0.00020113     0.00015973     0.00002892
H         6.33976167     7.19139560     8.40928845     0.00001566    -0.00002997     0.00043084
H         8.46314328     7.10603549     8.41624129    -0.00003612    -0.00028031     0.00008685
H         8.78116421     7.74117608     6.78035956     0.00019315    -0.00009612    -0.00034780
     6
  Step:    23            Position(A)                                  Velocity(au)
C         6.76664845     7.58811754     7.49191062    -0.00061158     0.00005665    -0.00006121
N         8.11880327     7.40824327     7.48274982     0.00052622    -0.00003491     0.00003988
H         6.18638414     7.97937079     6.64939072    -0.00019421     0.00017205     0.00002191
H         6.33974093     7.19132493     8.41049341    -0.00003043    -0.00002150     0.00044962
H         8.46308889     7.10528292     8.41645351    -0.00000350    -0.00027021     0.00006840
H         8.78171021     7.74095125     6.77937521     0.00020613    -0.00006860    -0.00037189
     6
  Step:    24            Position(A)                                  Velocity(au)
C         6.76492867     7.58827656     7.49174242    -0.00064567     0.00005955    -0.00006172
N         8.12028224     7.40813855     7.48286271     0.00055497    -0.00004158     0.00004266
H         6.18586190     7.97985821     6.64944052    -0.00018812     0.00018452     0.00001413
H         6.33959518     7.19127795     8.41174760    -0.00007571    -0.00001262     0.00046679
H         8.46312414     7.10455764     8.41661542     0.00002945    -0.00026037     0.00005011
H         8.78229161     7.74080087     6.77832561     0.00021901    -0.00004171    -0.00039547
     6
  Step:    25            Position(A)                                  Velocity(au)
C         6.76311721     7.58844325     7.49157304    -0.00067861     0.00006225    -0.00006206
N         8.12183849     7.40801587     7.48298315     0.00058273    -0.00004805     0.00004540
H         6.18535514     7.98037996     6.64946795    -0.00018290     0.00019716     0.00000553
H         6.33932676     7.19125583     8.41304649    -0.00012010    -0.00000330     0.00048228
H         8.46324997     7.10385889     8.41672762     0.00006276    -0.00025082     0.00003211
H         8.78290802     7.74072313     6.77721229     0.00023169    -0.00001549    -0.00041844
     6
  Step:    26            Position(A)                                  Velocity(au)
C         6.76121731     7.58861700     7.49140300    -0.00071034     0.00006472    -0.00006220
N         8.12346923     7.40787579     7.48311102     0.00060943    -0.00005430     0.00004809
H         6.18486144     7.98093655     6.64947070    -0.00017859     0.00021002    -0.00000394
H         6.33893822     7.19125984     8.41438537    -0.00016353     0.00000650     0.00049601
H         8.46346739     7.10318582     8.41679106     0.00009645    -0.00024160     0.00001451
H         8.78355881     7.74071615     6.77603707     0.00024411     0.00001002    -0.00044069
     6
  Step:    27            Position(A)                                  Velocity(au)
C         6.75923238     7.58879723     7.49123284    -0.00074078     0.00006697    -0.00006215
N         8.12517150     7.40771892     7.48324614     0.00063503    -0.00006033     0.00005070
H         6.18437815     7.98152859     6.64944629    -0.00017530     0.00022311    -0.00001435
H         6.33843223     7.19129124     8.41575944    -0.00020597     0.00001675     0.00050799
H         8.46377747     7.10253751     8.41680704     0.00013054    -0.00023273    -0.00000254
H         8.78424314     7.74077791     6.77480205     0.00025618     0.00003477    -0.00046212
     6
  Step:    28            Position(A)                                  Velocity(au)
C         6.75716620     7.58898328     7.49106307    -0.00076975     0.00006898    -0.00006191
N         8.12694209     7.40754590     7.48338829     0.00065939    -0.00006610     0.00005322
H         6.18390218     7.98215681     6.64939200    -0.00017326     0.00023648    -0.00002581
H         6.33781130     7.19135112     8.41716408    -0.00024756     0.00002734     0.00051835
H         8.46418136     7.10191289     8.41677728     0.00016506    -0.00022428    -0.00001888
H         8.78496001     7.74090624     6.77350957     0.00026787     0.00005869    -0.00048266
     6
  Step:    29            Position(A)                                  Velocity(au)
C         6.75502343     7.58917447     7.49089421    -0.00079679     0.00007073    -0.00006149
N         8.12877718     7.40735749     7.48353721     0.00068220    -0.00007158     0.00005564
H         6.18342924     7.98282205     6.64930450    -0.00017308     0.00025019    -0.00003863
H         6.33707720     7.19143997     8.41859549    -0.00028873     0.00003794     0.00052756
H         8.46468029     7.10131071     8.41670407     0.00020006    -0.00021633    -0.00003427
H         8.78570836     7.74109871     6.77216219     0.00027916     0.00008167    -0.00050223
     6
  Step:    30            Position(A)                                  Velocity(au)
C         6.75281090     7.58937003     7.49072663    -0.00082077     0.00007218    -0.00006097
N         8.13067142     7.40715469     7.48369259     0.00070266    -0.00007663     0.00005794
H         6.18295211     7.98352545     6.64917908    -0.00017631     0.00026440    -0.00005354
H         6.33622945     7.19155657     8.42005225    -0.00033066     0.00004764     0.00053689
H         8.46527575     7.10072933     8.41659059     0.00023565    -0.00020908    -0.00004828
H         8.78648728     7.74135236     6.77076254     0.00029019     0.00010344    -0.00052084
     6
  Step:    31            Position(A)                                  Velocity(au)
C         6.75054066     7.58956901     7.49056042    -0.00083900     0.00007323    -0.00006049
N         8.13261582     7.40693906     7.48385408     0.00071889    -0.00008097     0.00006010
H         6.18245639     7.98426879     6.64900769    -0.00018667     0.00027942    -0.00007224
H         6.33526206     7.19169544     8.42153893    -0.00037622     0.00005425     0.00054945
H         8.46596965     7.10016627     8.41644187     0.00027207    -0.00020293    -0.00006001
H         8.78729658     7.74166316     6.76931305     0.00030134     0.00012346    -0.00053864
     6
  Step:    32            Position(A)                                  Velocity(au)
C         6.74823476     7.58977010     7.49039507    -0.00084688     0.00007372    -0.00006035
N         8.13459441     7.40671318     7.48402125     0.00072768    -0.00008412     0.00006210
H         6.18191385     7.98505512     6.64877590    -0.00021051     0.00029584    -0.00009766
H         6.33415837     7.19184294     8.42307182    -0.00043030     0.00005397     0.00057070
H         8.46676483     7.09961762     8.41626611     0.00030973    -0.00019853    -0.00006804
H         8.78813760     7.74202510     6.76781552     0.00031333     0.00014085    -0.00055594
     6
  Step:    33            Position(A)                                  Velocity(au)
C         6.74592370     7.58997170     7.49022947    -0.00084281     0.00007361    -0.00006068
N         8.13658531     7.40648052     7.48419370     0.00072792    -0.00008594     0.00006395
H         6.18128454     7.98588865     6.64846400    -0.00025007     0.00031393    -0.00013075
H         6.33289273     7.19197841     8.42467756    -0.00049461     0.00004549     0.00060272
H         8.46766494     7.09907830     8.41607413     0.00034880    -0.00019608    -0.00007190
H         8.78901285     7.74243068     6.76627116     0.00032631     0.00015539    -0.00057284
     6
  Step:    34            Position(A)                                  Velocity(au)
C         6.74363085     7.59017249     7.49006288    -0.00083361     0.00007313    -0.00006108
N         8.13857165     7.40624375     7.48437101     0.00072438    -0.00008713     0.00006565
H         6.18053838     7.98677279     6.64805717    -0.00029587     0.00033281    -0.00016696
H         6.33144724     7.19208709     8.42637488    -0.00056179     0.00003442     0.00063759
H         8.46867303     7.09854441     8.41587455     0.00038869    -0.00019454    -0.00007362
H         8.78992325     7.74287393     6.76468203     0.00033897     0.00016839    -0.00058863
     6
  Step:    35            Position(A)                                  Velocity(au)
C         6.74136046     7.59037180     7.48989566    -0.00082641     0.00007253    -0.00006113
N         8.14054993     7.40600355     7.48455278     0.00072205    -0.00008844     0.00006721
H         6.17967200     7.98770835     6.64755348    -0.00033791     0.00035148    -0.00020148
H         6.32982449     7.19217001     8.42815984    -0.00062423     0.00002669     0.00066672
H         8.46979038     7.09801489     8.41567028     0.00042869    -0.00019289    -0.00007534
H         8.79086606     7.74335235     6.76305220     0.00034997     0.00018109    -0.00060254
     6
  Step:    36            Position(A)                                  Velocity(au)
C         6.73910435     7.59056942     7.48972900    -0.00082318     0.00007189    -0.00006068
N         8.14252539     7.40575936     7.48473856     0.00072232    -0.00009006     0.00006859
H         6.17869964     7.98869418     6.64695956    -0.00037330     0.00036952    -0.00023285
H         6.32804032     7.19223861     8.43001320    -0.00067985     0.00002397     0.00068753
H         8.47101698     7.09749039     8.41546056     0.00046856    -0.00019086    -0.00007762
H         8.79183620     7.74386550     6.76138727     0.00035891     0.00019375    -0.00061424
     6
  Step:    37            Position(A)                                  Velocity(au)
C         6.73685229     7.59076521     7.48956421    -0.00082346     0.00007120    -0.00005975
N         8.14450468     7.40551042     7.48492788     0.00072487    -0.00009191     0.00006978
H         6.17763873     7.98972849     6.64628383    -0.00040260     0.00038688    -0.00026122
H         6.32611263     7.19230607     8.43191275    -0.00072922     0.00002586     0.00070046
H         8.47235244     7.09697186     8.41524404     0.00050828    -0.00018852    -0.00008032
H         8.79282802     7.74441301     6.75969335     0.00036581     0.00020620    -0.00062369
     6
  Step:    38            Position(A)                                  Velocity(au)
C         6.73459595     7.59095899     7.48940251    -0.00082633     0.00007042    -0.00005842
N         8.14649315     7.40525621     7.48512020     0.00072905    -0.00009391     0.00007078
H         6.17650432     7.99080946     6.64553393    -0.00042700     0.00040360    -0.00028703
H         6.32405704     7.19238397     8.43383834    -0.00077342     0.00003161     0.00070656
H         8.47379641     7.09645995     8.41501995     0.00054789    -0.00018601    -0.00008316
H         8.79383613     7.74499400     6.75797663     0.00037079     0.00021821    -0.00063089
     6
  Step:    39            Position(A)                                  Velocity(au)
C         6.73232940     7.59115049     7.48924496    -0.00083094     0.00006954    -0.00005673
N         8.14849450     7.40499648     7.48531495     0.00073430    -0.00009595     0.00007156
H         6.17530831     7.99193536     6.64471624    -0.00044760     0.00041971    -0.00031072
H         6.32188635     7.19248186     8.43577269    -0.00081344     0.00004048     0.00070686
H         8.47534864     7.09595497     8.41478824     0.00058744    -0.00018344    -0.00008589
H         8.79485540     7.74560699     6.75624324     0.00037397     0.00022959    -0.00063586
     6
  Step:    40            Position(A)                                  Velocity(au)
C         6.73004880     7.59133942     7.48909245    -0.00047778     0.00003914    -0.00003126
N         8.15051097     7.40473117     7.48551157     0.00042268    -0.00005596     0.00004119
H         6.17405990     7.99310455     6.64383617    -0.00026572     0.00024856    -0.00018995
H         6.31961090     7.19260749     8.43770111    -0.00048547     0.00002963     0.00040104
H         8.47700896     7.09545699     8.41454949     0.00035803    -0.00010331    -0.00005044
H         8.79588104     7.74625010     6.75449923     0.00021441     0.00013718    -0.00036472
     6
  Step:    41            Position(A)                                  Velocity(au)
C         6.72873323     7.59144504     7.48900995    -0.00048416     0.00003805    -0.00002904
N         8.15167557     7.40457535     7.48562485     0.00042888    -0.00005795     0.00004160
H         6.17331186     7.99380499     6.64328841    -0.00028125     0.00026361    -0.00021043
H         6.31823605     7.19270627     8.43878748    -0.00051968     0.00004288     0.00039278
H         8.47804193     7.09517800     8.41440829     0.00039747    -0.00010080    -0.00005261
H         8.79646813     7.74663931     6.75349965     0.00021456     0.00014717    -0.00036577
     6
  Step:    42            Position(A)                                  Velocity(au)
C         6.72739980     7.59154757     7.48893369    -0.00049084     0.00003689    -0.00002669
N         8.15285731     7.40441412     7.48573907     0.00043521    -0.00005991     0.00004187
H         6.17252309     7.99454610     6.64268592    -0.00029547     0.00027828    -0.00022993
H         6.31676972     7.19284284     8.43984802    -0.00055238     0.00005726     0.00038218
H         8.47918270     7.09490582     8.41426149     0.00043685    -0.00009833    -0.00005455
H         8.79705437     7.74705515     6.75249888     0.00021379     0.00015666    -0.00036558
     6
  Step:    43            Position(A)                                  Velocity(au)
C         6.72604822     7.59164681     7.48886399    -0.00049744     0.00003565    -0.00002425
N         8.15405614     7.40424765     7.48585387     0.00044139    -0.00006178     0.00004203
H         6.17169656     7.99532691     6.64203118    -0.00030883     0.00029261    -0.00024859
H         6.31521547     7.19301985     8.44087708    -0.00058398     0.00007245     0.00036977
H         8.48043109     7.09464028     8.41410982     0.00047617    -0.00009594    -0.00005619
H         8.79763731     7.74749617     6.75150027     0.00021215     0.00016559    -0.00036420
     6
  Step:    44            Position(A)                                  Velocity(au)
C         6.72467888     7.59174255     7.48880109    -0.00050383     0.00003434    -0.00002173
N         8.15527157     7.40407618     7.48596895     0.00044734    -0.00006357     0.00004207
H         6.17083444     7.99614639     6.64132649    -0.00032147     0.00030655    -0.00026642
H         6.31357609     7.19323930     8.44187003    -0.00061465     0.00008829     0.00035580
H         8.48178692     7.09438116     8.41395411     0.00051540    -0.00009362    -0.00005753
H         8.79821462     7.74796084     6.75050702     0.00020967     0.00017395    -0.00036166
     6