     6
  Step:     0            Position(A)                                  Velocity(au)
C         6.80883156     7.58463552     7.49857496    -0.00009407    -0.00001176    -0.00008046
N         8.08208443     7.40496134     7.47955237     0.00009165     0.00017824     0.00004090
H         6.22484029     7.96852713     6.64304411    -0.00086291    -0.00001444     0.00014276
H         6.29825834     7.20020461     8.37774242     0.00119435    -0.00019678     0.00005599
H         8.49203870     7.15347109     8.39401177    -0.00077470    -0.00097156     0.00038783
H         8.76298922     7.78160133     6.80691254     0.00029745    -0.00115008    -0.00021296
     6
  Step:     1            Position(A)                                  Velocity(au)
C         6.80857886     7.58460008     7.49835009    -0.00009064    -0.00001413    -0.00008408
N         8.08233130     7.40545397     7.47966992     0.00008885     0.00018200     0.00004512
H         6.22250426     7.96849115     6.64343653    -0.00084517    -0.00001206     0.00014459
H         6.30147826     7.19966940     8.37792844     0.00115928    -0.00019497     0.00008106
H         8.48995171     7.15077940     8.39506003    -0.00075165    -0.00099656     0.00037798
H         8.76379168     7.77845130     6.80628588     0.00028984    -0.00115336    -0.00024553
     6
  Step:     2            Position(A)                                  Velocity(au)
C         6.80833581     7.58455827     7.49811512    -0.00008701    -0.00001643    -0.00008783
N         8.08257036     7.40595674     7.47979912     0.00008594     0.00018565     0.00004941
H         6.22021786     7.96846118     6.64383491    -0.00082663    -0.00001004     0.00014711
H         6.30459868     7.19913829     8.37818574     0.00112165    -0.00019375     0.00010803
H         8.48792776     7.14802066     8.39607903    -0.00072861    -0.00102058     0.00036640
H         8.76457443     7.77529334     6.80556970     0.00028298    -0.00115591    -0.00027838
     6
  Step:     3            Position(A)                                  Velocity(au)
C         6.80810297     7.58451025     7.49786972    -0.00008319    -0.00001866    -0.00009170
N         8.08280135     7.40646934     7.47994016     0.00008295     0.00018919     0.00005377
H         6.21798325     7.96843625     6.64424110    -0.00080731    -0.00000836     0.00015027
H         6.30761282     7.19860975     8.37851930     0.00108163    -0.00019304     0.00013673
H         8.48596678     7.14519761     8.39706398    -0.00070561    -0.00104358     0.00035307
H         8.76533937     7.77212936     6.80476337     0.00027677    -0.00115780    -0.00031141
     6
  Step:     4            Position(A)                                  Velocity(au)
C         6.80788084     7.58445618     7.49761358    -0.00007918    -0.00002085    -0.00009567
N         8.08302401     7.40699146     7.48009322     0.00007986     0.00019262     0.00005820
H         6.21580252     7.96841548     6.64465679    -0.00078724    -0.00000700     0.00015404
H         6.31051437     7.19808249     8.37893355     0.00103940    -0.00019278     0.00016693
H         8.48406864     7.14231307     8.39801003    -0.00068266    -0.00106555     0.00033795
H         8.76608815     7.76896109     6.80386655     0.00027112    -0.00115908    -0.00034450
     6
  Step:     5            Position(A)                                  Velocity(au)
C         6.80766990     7.58439622     7.49734647    -0.00007502    -0.00002298    -0.00009971
N         8.08323814     7.40752281     7.48025847     0.00007671     0.00019594     0.00006268
H         6.21367766     7.96839799     6.64508357    -0.00076646    -0.00000594     0.00015836
H         6.31329753     7.19755540     8.37943230     0.00099514    -0.00019287     0.00019841
H         8.48223315     7.13936989     8.39891231    -0.00065979    -0.00108645     0.00032105
H         8.76682216     7.76579009     6.80287923     0.00026591    -0.00115983    -0.00037753
     6
  Step:     6            Position(A)                                  Velocity(au)
C         6.80747057     7.58433048     7.49706824    -0.00007070    -0.00002508    -0.00010380
N         8.08344355     7.40806309     7.48043605     0.00007349     0.00019915     0.00006721
H         6.21161059     7.96838300     6.64552288    -0.00074500    -0.00000516     0.00016317
H         6.31595700     7.19702765     8.38001871     0.00094905    -0.00019322     0.00023091
H         8.48046009     7.13637104     8.39976592    -0.00063701    -0.00110626     0.00030236
H         8.76754247     7.76261774     6.80180173     0.00026104    -0.00116010    -0.00041040
     6
  Step:     7            Position(A)                                  Velocity(au)
C         6.80728323     7.58425906     7.49677878    -0.00006625    -0.00002714    -0.00010791
N         8.08364008     7.40861200     7.48062606     0.00007022     0.00020225     0.00007178
H         6.20960309     7.96836977     6.64597601    -0.00072290    -0.00000464     0.00016844
H         6.31848807     7.19649865     8.38069523     0.00090133    -0.00019373     0.00026419
H         8.47874920     7.13331949     8.40056599    -0.00061433    -0.00112498     0.00028190
H         8.76824985     7.75944524     6.80063468     0.00025640    -0.00115996    -0.00044296
     6
  Step:     8            Position(A)                                  Velocity(au)
C         6.80710823     7.58418204     7.49647807    -0.00006169    -0.00002918    -0.00011202
N         8.08382760     7.40916925     7.48082862     0.00006691     0.00020525     0.00007637
H         6.20765689     7.96835764     6.64644410    -0.00070020    -0.00000435     0.00017408
H         6.32088660     7.19596811     8.38146361     0.00085221    -0.00019430     0.00029796
H         8.47710019     7.13021829     8.40130770    -0.00059175    -0.00114258     0.00025970
H         8.76894477     7.75627363     6.79937909     0.00025187    -0.00115949    -0.00047509
     6
  Step:     9            Position(A)                                  Velocity(au)
C         6.80694585     7.58409948     7.49616614    -0.00005702    -0.00003120    -0.00011609
N         8.08400602     7.40973456     7.48104377     0.00006357     0.00020815     0.00008099
H         6.20577356     7.96834600     6.64692812    -0.00067693    -0.00000426     0.00018006
H         6.32314903     7.19543599     8.38232485     0.00080191    -0.00019483     0.00033196
H         8.47551279     7.12707048     8.40198633    -0.00056927    -0.00115905     0.00023578
H         8.76962737     7.75310375     6.79803630     0.00024733    -0.00115873    -0.00050667
     6
  Step:    10            Position(A)                                  Velocity(au)
C         6.80679635     7.58401141     7.49584312    -0.00005228    -0.00003321    -0.00012012
N         8.08417526     7.41030766     7.48127156     0.00006020     0.00021094     0.00008561
H         6.20395460     7.96833432     6.64742888    -0.00065314    -0.00000436     0.00018630
H         6.32527241     7.19490255     8.38327919     0.00075063    -0.00019521     0.00036591
H         8.47398670     7.12387917     8.40259725    -0.00054691    -0.00117439     0.00021021
H         8.77029747     7.74993629     6.79660800     0.00024267    -0.00115775    -0.00053757
     6
  Step:    11            Position(A)                                  Velocity(au)
C         6.80665993     7.58391783     7.49550919    -0.00004747    -0.00003523    -0.00012406
N         8.08433528     7.41088826     7.48151199     0.00005682     0.00021364     0.00009023
H         6.20220136     7.96832214     6.64794703    -0.00062888    -0.00000461     0.00019275
H         6.32725440     7.19436834     8.38432611     0.00069861    -0.00019534     0.00039953
H         8.47252163     7.12064745     8.40313599    -0.00052464    -0.00118861     0.00018302
H         8.77095457     7.74677177     6.79509622     0.00023776    -0.00115660    -0.00056766
     6
  Step:    12            Position(A)                                  Velocity(au)
C         6.80653675     7.58381874     7.49516462    -0.00004260    -0.00003725    -0.00012789
N         8.08448604     7.41147609     7.48176504     0.00005344     0.00021624     0.00009483
H         6.20051510     7.96830908     6.64848305    -0.00060419    -0.00000500     0.00019933
H         6.32909325     7.19383418     8.38546432     0.00064605    -0.00019512     0.00043255
H         8.47111732     7.11737841     8.40359825    -0.00050247    -0.00120169     0.00015431
H         8.77159786     7.74361058     6.79350332     0.00023250    -0.00115534    -0.00059683
     6
  Step:    13            Position(A)                                  Velocity(au)
C         6.80642692     7.58371409     7.49480974    -0.00003771    -0.00003929    -0.00013158
N         8.08462756     7.41207090     7.48203063     0.00005007     0.00021874     0.00009940
H         6.19889694     7.96829482     6.64903722    -0.00057910    -0.00000548     0.00020599
H         6.33078779     7.19330119     8.38669180     0.00059317    -0.00019444     0.00046469
H         8.46977349     7.11407514     8.40397994    -0.00048040    -0.00121364     0.00012413
H         8.77222619     7.74045294     6.79183201     0.00022678    -0.00115403    -0.00062495
     6
  Step:    14            Position(A)                                  Velocity(au)
C         6.80633053     7.58360383     7.49444496    -0.00003279    -0.00004136    -0.00013512
N         8.08475986     7.41267243     7.48230867     0.00004670     0.00022115     0.00010393
H         6.19734787     7.96827912     6.64960968    -0.00055367    -0.00000603     0.00021267
H         6.33233742     7.19277075     8.38800579     0.00054017    -0.00019320     0.00049569
H         8.46848993     7.11074071     8.40427717    -0.00045840    -0.00122449     0.00009258
H         8.77283815     7.73729895     6.79008531     0.00022047    -0.00115269    -0.00065192
     6
  Step:    15            Position(A)                                  Velocity(au)
C         6.80624759     7.58348787     7.49407076    -0.00002787    -0.00004347    -0.00013847
N         8.08488300     7.41328041     7.48259904     0.00004337     0.00022347     0.00010840
H         6.19586879     7.96826184     6.65020036    -0.00052794    -0.00000663     0.00021929
H         6.33374212     7.19224453     8.38940281     0.00048726    -0.00019132     0.00052529
H         8.46726642     7.10737815     8.40448631    -0.00043646    -0.00123422     0.00005975
H         8.77343201     7.73414859     6.78826653     0.00021349    -0.00115139    -0.00067761
     6
  Step:    16            Position(A)                                  Velocity(au)
C         6.80617810     7.58336611     7.49368766    -0.00002296    -0.00004561    -0.00014160
N         8.08499704     7.41389461     7.48290156     0.00004006     0.00022569     0.00011281
H         6.19446044     7.96824288     6.65080903    -0.00050196    -0.00000724     0.00022579
H         6.33500236     7.19172441     8.39087873     0.00043462    -0.00018869     0.00055327
H         8.46610282     7.10399045     8.40460398    -0.00041458    -0.00124287     0.00002574
H         8.77400576     7.73100173     6.78637931     0.00020572    -0.00115016    -0.00070192
     6
  Step:    17            Position(A)                                  Velocity(au)
C         6.80612201     7.58323841     7.49329629    -0.00001808    -0.00004780    -0.00014451
N         8.08510209     7.41451478     7.48321603     0.00003679     0.00022783     0.00011714
H         6.19312345     7.96822224     6.65143528    -0.00047577    -0.00000784     0.00023212
H         6.33611916     7.19121253     8.39242875     0.00038243    -0.00018525     0.00057938
H         8.46499900     7.10058058     8.40462707    -0.00039273    -0.00125045    -0.00000937
H         8.77455715     7.72785812     6.78442756     0.00019709    -0.00114902    -0.00072475
     6
  Step:    18            Position(A)                                  Velocity(au)
C         6.80607924     7.58310465     7.49289730    -0.00001323    -0.00005005    -0.00014717
N         8.08519825     7.41514069     7.48354222     0.00003357     0.00022989     0.00012137
H         6.19185832     7.96819999     6.65207854    -0.00044943    -0.00000840     0.00023820
H         6.33709398     7.19071124     8.39404748     0.00033087    -0.00018091     0.00060341
H         8.46395488     7.09715144     8.40455275    -0.00037090    -0.00125698    -0.00004544
H         8.77508367     7.72471745     6.78241547     0.00018749    -0.00114802    -0.00074601
     6
  Step:    19            Position(A)                                  Velocity(au)
C         6.80604966     7.58296467     7.49249141    -0.00000843    -0.00005236    -0.00014955
N         8.08528567     7.41577209     7.48387986     0.00003040     0.00023186     0.00012550
H         6.19066543     7.96817628     6.65273805    -0.00042296    -0.00000890     0.00024398
H         6.33792878     7.19022308     8.39572896     0.00028010    -0.00017561     0.00062518
H         8.46297045     7.09370587     8.40437852    -0.00034907    -0.00126248    -0.00008238
H         8.77558260     7.72157934     6.78034745     0.00017687    -0.00114717    -0.00076561
     6
  Step:    20            Position(A)                                  Velocity(au)
C         6.80603313     7.58281828     7.49207940    -0.00000385    -0.00005705    -0.00015805
N         8.08536450     7.41640877     7.48422863     0.00002844     0.00024363     0.00013499
H         6.18954504     7.96815131     6.65341290    -0.00041320    -0.00000970     0.00025994
H         6.33862592     7.18975078     8.39746672     0.00024001    -0.00017645     0.00067176
H         8.46204573     7.09024663     8.40410218    -0.00034107    -0.00132060    -0.00012515
H         8.77605101     7.71844332     6.77822815     0.00017213    -0.00119500    -0.00081663
     6
  Step:    21            Position(A)                                  Velocity(au)
C         6.80602903     7.58265897     7.49164453     0.00000081    -0.00005950    -0.00015983
N         8.08543805     7.41707753     7.48460318     0.00002539     0.00024543     0.00013887
H         6.18845141     7.96812431     6.65413086    -0.00038664    -0.00000998     0.00026492
H         6.33921481     7.18927762     8.39932841     0.00019128    -0.00016903     0.00068842
H         8.46114293     7.08662982     8.40370796    -0.00031918    -0.00132412    -0.00016346
H         8.77650492     7.71517628     6.77597176     0.00015923    -0.00119450    -0.00083266
     6
  Step:    22            Position(A)                                  Velocity(au)
C         6.80603756     7.58249287     7.49120526     0.00000538    -0.00006202    -0.00016127
N         8.08550337     7.41775110     7.48498814     0.00002241     0.00024715     0.00014260
H         6.18743043     7.96809672     6.65486180    -0.00036009    -0.00001012     0.00026940
H         6.33967206     7.18882632     8.40123183     0.00014380    -0.00016045     0.00070221
H         8.46030006     7.08300473     8.40320816    -0.00029724    -0.00132666    -0.00020230
H         8.77692185     7.71191032     6.77367413     0.00014506    -0.00119420    -0.00084677
     6
  Step:    23            Position(A)                                  Velocity(au)
C         6.80605848     7.58231977     7.49076250     0.00000987    -0.00006462    -0.00016237
N         8.08556064     7.41842924     7.48538310     0.00001951     0.00024878     0.00014617
H         6.18648201     7.96806899     6.65560429    -0.00033360    -0.00001008     0.00027334
H         6.34000127     7.18840011     8.40316898     0.00009769    -0.00015067     0.00071304
H         8.45951729     7.07937400     8.40260155    -0.00027521    -0.00132827    -0.00024152
H         8.77729829     7.70864492     6.77134059     0.00012960    -0.00119410    -0.00085890
     6
  Step:    24            Position(A)                                  Velocity(au)
C         6.80609151     7.58213944     7.49031723     0.00001424    -0.00006730    -0.00016311
N         8.08561007     7.41911174     7.48578760     0.00001669     0.00025033     0.00014958
H         6.18560592     7.96804161     6.65635676    -0.00030720    -0.00000984     0.00027668
H         6.34020633     7.18800228     8.40513158     0.00005305    -0.00013967     0.00072079
H         8.45879485     7.07574012     8.40188724    -0.00025310    -0.00132898    -0.00028100
H         8.77763067     7.70537953     6.76897659     0.00011282    -0.00119418    -0.00086903
     6
  Step:    25            Position(A)                                  Velocity(au)
C         6.80613637     7.58195167     7.48987044     0.00001851    -0.00007007    -0.00016348
N         8.08565190     7.41979836     7.48620119     0.00001394     0.00025180     0.00015281
H         6.18480186     7.96801515     6.65711752    -0.00028094    -0.00000939     0.00027938
H         6.34029141     7.18763620     8.40711112     0.00000998    -0.00012744     0.00072539
H         8.45813303     7.07210550     8.40106467    -0.00023087    -0.00132883    -0.00032062
H         8.77791531     7.70211367     6.76658766     0.00009469    -0.00119444    -0.00087713
     6
  Step:    26            Position(A)                                  Velocity(au)
C         6.80619274     7.58175622     7.48942312     0.00002266    -0.00007291    -0.00016348
N         8.08568633     7.42048888     7.48662336     0.00001128     0.00025318     0.00015585
H         6.18406940     7.96799023     6.65788473    -0.00025485    -0.00000871     0.00028138
H         6.34026091     7.18730526     8.40909890    -0.00003144    -0.00011398     0.00072679
H         8.45753216     7.06847245     8.40013368    -0.00020851    -0.00132786    -0.00036024
H         8.77814853     7.69884684     6.76417937     0.00007520    -0.00119487    -0.00088318
     6
  Step:    27            Position(A)                                  Velocity(au)
C         6.80626030     7.58155289     7.48897631     0.00002668    -0.00007584    -0.00016311
N         8.08571360     7.42118306     7.48705359     0.00000870     0.00025448     0.00015871
H         6.18340802     7.96796753     6.65865646    -0.00022897    -0.00000776     0.00028266
H         6.34011947     7.18701284     8.41108609    -0.00007113    -0.00009927     0.00072494
H         8.45699262     7.06484315     8.39909443    -0.00018601    -0.00132611    -0.00039974
H         8.77832662     7.69557864     6.76175733     0.00005437    -0.00119545    -0.00088719
     6
  Step:    28            Position(A)                                  Velocity(au)
C         6.80633868     7.58134143     7.48853104     0.00003058    -0.00007885    -0.00016236
N         8.08573393     7.42188068     7.48749135     0.00000621     0.00025570     0.00016136
H         6.18281710     7.96794778     6.65943065    -0.00020333    -0.00000654     0.00028317
H         6.33987188     7.18676232     8.41306377    -0.00010904    -0.00008334     0.00071983
H         8.45651483     7.06121966     8.39794742    -0.00016334    -0.00132363    -0.00043898
H         8.77844589     7.69230868     6.75932712     0.00003219    -0.00119614    -0.00088916
     6
  Step:    29            Position(A)                                  Velocity(au)
C         6.80642754     7.58112164     7.48808835     0.00003434    -0.00008194    -0.00016122
N         8.08574757     7.42258152     7.48793609     0.00000380     0.00025683     0.00016380
H         6.18229594     7.96793175     6.66020515    -0.00017797    -0.00000503     0.00028287
H         6.33952310     7.18655705     8.41502302    -0.00014511    -0.00006619     0.00071146
H         8.45609927     7.05760393     8.39669354    -0.00014049    -0.00132046    -0.00047785
H         8.77850269     7.68903666     6.75689432     0.00000870    -0.00119693    -0.00088910
     6
  Step:    30            Position(A)                                  Velocity(au)
C         6.80652649     7.58089331     7.48764927     0.00003796    -0.00008510    -0.00015971
N         8.08575473     7.42328534     7.48838722     0.00000148     0.00025788     0.00016603
H         6.18184375     7.96792025     6.66097775    -0.00015290    -0.00000322     0.00028175
H         6.33907822     7.18640031     8.41695492    -0.00017931    -0.00004786     0.00069985
H         8.45574645     7.05399777     8.39533397    -0.00011745    -0.00131665    -0.00051621
H         8.77849347     7.68576237     6.75446441    -0.00001608    -0.00119779    -0.00088706
     6
  Step:    31            Position(A)                                  Velocity(au)
C         6.80663516     7.58065622     7.48721485     0.00004144    -0.00008833    -0.00015782
N         8.08575566     7.42399191     7.48884417    -0.00000076     0.00025884     0.00016805
H         6.18145968     7.96791414     6.66174612    -0.00012817    -0.00000109     0.00027977
H         6.33854240     7.18629530     8.41885064    -0.00021161    -0.00002838     0.00068503
H         8.45545691     7.05040288     8.39387025    -0.00009420    -0.00131224    -0.00055396
H         8.77841473     7.68248566     6.75204280    -0.00004211    -0.00119868    -0.00088306
     6
  Step:    32            Position(A)                                  Velocity(au)
C         6.80675315     7.58041020     7.48678610     0.00004478    -0.00009164    -0.00015556
N         8.08575057     7.42470102     7.48930634    -0.00000292     0.00025973     0.00016985
H         6.18114279     7.96791429     6.66250790    -0.00010378     0.00000137     0.00027692
H         6.33792089     7.18624512     8.42070148    -0.00024198    -0.00000778     0.00066705
H         8.45523125     7.04682082     8.39230424    -0.00007073    -0.00130729    -0.00059097
H         8.77826315     7.67920650     6.74963476    -0.00006934    -0.00119957    -0.00087716
     6
  Step:    33            Position(A)                                  Velocity(au)
C         6.80688006     7.58015504     7.48636405     0.00004796    -0.00009500    -0.00015293
N         8.08573969     7.42541241     7.48977313    -0.00000500     0.00026052     0.00017143
H         6.18089209     7.96792163     6.66326064    -0.00007977     0.00000417     0.00027316
H         6.33721894     7.18625275     8.42249890    -0.00027043     0.00001388     0.00064600
H         8.45507006     7.04325303     8.39063809    -0.00004704    -0.00130183    -0.00062713
H         8.77803550     7.67592495     6.74724541    -0.00009771    -0.00120041    -0.00086942
     6
  Step:    34            Position(A)                                  Velocity(au)
C         6.80701547     7.57989059     7.48594967     0.00005100    -0.00009843    -0.00014995
N         8.08572324     7.42612586     7.49024392    -0.00000700     0.00026123     0.00017278
H         6.18070653     7.96793708     6.66400189    -0.00005614     0.00000731     0.00026850
H         6.33644182     7.18632105     8.42423458    -0.00029696     0.00003656     0.00062194
H         8.45497399     7.03970083     8.38887429    -0.00002310    -0.00129591    -0.00066234
H         8.77772876     7.67264117     6.74487972    -0.00012715    -0.00120117    -0.00085990
     6
  Step:    35            Position(A)                                  Velocity(au)
C         6.80715899     7.57961670     7.48554395     0.00005389    -0.00010191    -0.00014661
N         8.08570143     7.42684114     7.49071812    -0.00000892     0.00026185     0.00017391
H         6.18058504     7.96796160     6.66472912    -0.00003292     0.00001080     0.00026291
H         6.33559477     7.18645272     8.42590046    -0.00032159     0.00006020     0.00059500
H         8.45494370     7.03616538     8.38701558     0.00000107    -0.00128959    -0.00069650
H         8.77734008     7.66935547     6.74254244    -0.00015760    -0.00120180    -0.00084868
     6
  Step:    36            Position(A)                                  Velocity(au)
C         6.80731019     7.57933321     7.48514783     0.00005662    -0.00010544    -0.00014293
N         8.08567448     7.42755799     7.49119509    -0.00001076     0.00026239     0.00017482
H         6.18052646     7.96799616     6.66543983    -0.00001012     0.00001465     0.00025641
H         6.33468299     7.18665030     8.42748876    -0.00034432     0.00008474     0.00056526
H         8.45497985     7.03264777     8.38506499     0.00002550    -0.00128290    -0.00072950
H         8.77686684     7.66606824     6.74023808    -0.00018896    -0.00120226    -0.00083586
     6
  Step:    37            Position(A)                                  Velocity(au)
C         6.80746864     7.57904002     7.48476223     0.00005919    -0.00010901    -0.00013892
N         8.08564257     7.42827619     7.49167423    -0.00001254     0.00026283     0.00017550
H         6.18052966     7.96804172     6.66613147     0.00001225     0.00001885     0.00024897
H         6.33371159     7.18691617     8.42899202    -0.00036521     0.00011011     0.00053287
H         8.45508315     7.02914892     8.38302578     0.00005017    -0.00127588    -0.00076126
H         8.77630661     7.66278001     6.73797094    -0.00022116    -0.00120251    -0.00082152
     6
  Step:    38            Position(A)                                  Velocity(au)
C         6.80763393     7.57873702     7.48438804     0.00006161    -0.00011261    -0.00013460
N         8.08560590     7.42899549     7.49215494    -0.00001424     0.00026319     0.00017596
H         6.18059345     7.96809925     6.66680152     0.00003419     0.00002340     0.00024062
H         6.33268558     7.18725251     8.43040315    -0.00038428     0.00013624     0.00049795
H         8.45525426     7.02566968     8.38090147     0.00007510    -0.00126858    -0.00079170
H         8.77565724     7.65949143     6.73574503    -0.00025411    -0.00120250    -0.00080576
     6
  Step:    39            Position(A)                                  Velocity(au)
C         6.80780562     7.57842411     7.48402610     0.00006388    -0.00011624    -0.00012996
N         8.08556467     7.42971563     7.49263660    -0.00001588     0.00026345     0.00017620
H         6.18071665     7.96816971     6.66744748     0.00005569     0.00002831     0.00023136
H         6.33160986     7.18766131     8.43171542    -0.00040159     0.00016307     0.00046064
H         8.45549388     7.02221075     8.37869578     0.00010027    -0.00126104    -0.00082075
H         8.77491683     7.65620328     6.73356407    -0.00028770    -0.00120218    -0.00078869
     6
  Step:    40            Position(A)                                  Velocity(au)
C         6.80798328     7.57810125     7.48367723     0.00006349    -0.00011537    -0.00012032
N         8.08551906     7.43043637     7.49311863    -0.00001679     0.00025366     0.00016957
H         6.18089804     7.96825407     6.66806686     0.00007386     0.00003229     0.00021283
H         6.33048918     7.18814438     8.43292252    -0.00040143     0.00018332     0.00040520
H         8.45580268     7.01877274     8.37641262     0.00012094    -0.00120595    -0.00081627
H         8.77408374     7.65291645     6.73143149    -0.00030968    -0.00115611    -0.00074132
     6
  Step:    41            Position(A)                                  Velocity(au)
C         6.80815967     7.57778077     7.48335512     0.00006544    -0.00011903    -0.00011513
N         8.08547104     7.43113022     7.49358224    -0.00001830     0.00025374     0.00016939
H         6.18112852     7.96834978     6.66863437     0.00009450     0.00003787     0.00020180
H         6.32937124     7.18868360     8.43397505    -0.00041542     0.00021129     0.00036363
H         8.45616834     7.01548566     8.37414375     0.00014660    -0.00119803    -0.00084236
H         8.77318987     7.64975611     6.72943000    -0.00034425    -0.00115505    -0.00072201
     6
  Step:    42            Position(A)                                  Velocity(au)
C         6.80834119     7.57745026     7.48304757     0.00006724    -0.00012269    -0.00010969
N         8.08541896     7.43182416     7.49404509    -0.00001975     0.00025373     0.00016902
H         6.18141489     7.96846120     6.66917056     0.00011473     0.00004377     0.00018994
H         6.32821717     7.18929999     8.43491130    -0.00042789     0.00023971     0.00032024
H         8.45660445     7.01222043     8.37180559     0.00017247    -0.00118998    -0.00086692
H         8.77220096     7.64659922     6.72748264    -0.00037913    -0.00115356    -0.00070179
     6
  Step:    43            Position(A)                                  Velocity(au)
C         6.80852742     7.57710972     7.48275521     0.00006889    -0.00012636    -0.00010402
N         8.08536300     7.43251794     7.49450663    -0.00002115     0.00025363     0.00016845
H         6.18175602     7.96858918     6.66967321     0.00013456     0.00004997     0.00017728
H         6.32703102     7.18999464     8.43572651    -0.00043892     0.00026850     0.00027519
H         8.45711160     7.00897737     8.36940236     0.00019855    -0.00118183    -0.00088992
H         8.77111631     7.64344703     6.72559172    -0.00041421    -0.00115160    -0.00068080
     6
  Step:    44            Position(A)                                  Velocity(au)
C         6.80871794     7.57675918     7.48247868     0.00007038    -0.00013001    -0.00009813
N         8.08530328     7.43321131     7.49496637    -0.00002250     0.00025343     0.00016770
H         6.18215085     7.96873452     6.67014016     0.00015401     0.00005647     0.00016385
H         6.32581663     7.19076845     8.43641639    -0.00044858     0.00029756     0.00022867
H         8.45769034     7.00575672     8.36693842     0.00022482    -0.00117360    -0.00091132
H         8.76993554     7.64030087     6.72375918    -0.00044938    -0.00114912    -0.00065917
     6