     9
  Step:   800            Position(A)                                  Velocity(au)
C         6.78239554     7.55033897     7.50895314     0.00008582    -0.00006308     0.00018143
N         8.01509727     7.23726991     7.51802797    -0.00014923     0.00010500    -0.00009603
H         6.07081134     6.77865790     7.16872764     0.00075398     0.00054819    -0.00137516
H         6.68124649     8.49316291     8.04138085    -0.00109926    -0.00018304     0.00034169
H         8.46539625     6.35704076     7.21603945     0.00015108    -0.00033162     0.00139523
H         8.70603880     7.98958722     7.74434872     0.00120795    -0.00084864    -0.00116706
O         9.09422242    10.25402834     7.01976353     0.00000232     0.00000485    -0.00000076
H         8.90861532    11.18452320     7.14504136    -0.00000272     0.00000147     0.00000630
H         8.69063818     9.82435471     7.77390785    -0.00000690    -0.00000053    -0.00001068
