     9
  Step:     0            Position(A)                                  Velocity(au)
C         6.79554999     7.55605723     7.51409468     0.00013271     0.00013888    -0.00009336
N         8.05410625     7.30887334     7.51001345    -0.00018449    -0.00043517    -0.00005298
H         6.39647963     7.93655869     6.56275280    -0.00105895    -0.00041136     0.00057365
H         6.11259940     7.40974363     8.36320140     0.00028111    -0.00043589     0.00071349
H         8.64921781     7.03764388     8.31439330    -0.00051486     0.00088054     0.00049195
H         8.58738296     7.66765418     6.67063625     0.00091084     0.00044118     0.00088032
O         9.05007579    10.16245887     7.03576174     0.00012189     0.00024304    -0.00005104
H         8.95211500    11.11557303     7.04483075    -0.00013367     0.00023902     0.00029662
H         8.83723871     9.88618769     7.92834906    -0.00043007    -0.00017524    -0.00031385
     9
  Step:     1            Position(A)                                  Velocity(au)
C         6.79588297     7.55644233     7.51384104     0.00011066     0.00014279    -0.00009203
N         8.05363806     7.30767880     7.50986541    -0.00015785    -0.00043849    -0.00005532
H         6.39348588     7.93546374     6.56425957    -0.00113044    -0.00038948     0.00052804
H         6.11330730     7.40855371     8.36519089     0.00023746    -0.00043429     0.00074056
H         8.64780920     7.04003929     8.31574906    -0.00051513     0.00087120     0.00049995
H         8.58988513     7.66884061     6.67308083     0.00091873     0.00042647     0.00090754
O         9.05040909    10.16312351     7.03562224     0.00012187     0.00024306    -0.00005099
H         8.95174924    11.11622279     7.04564415    -0.00013382     0.00023609     0.00029825
H         8.83606319     9.88571197     7.92748742    -0.00042966    -0.00017270    -0.00031631
     9
  Step:     2            Position(A)                                  Velocity(au)
C         6.79615523     7.55683820     7.51359135     0.00008833     0.00014676    -0.00009047
N         8.05324294     7.30647516     7.50971089    -0.00013109    -0.00044182    -0.00005772
H         6.39029701     7.93442856     6.56564078    -0.00120152    -0.00036773     0.00048199
H         6.11389812     7.40736840     8.36725167     0.00019552    -0.00043251     0.00076557
H         8.64640045     7.04240868     8.31712763    -0.00051497     0.00086151     0.00050862
H         8.59240773     7.66998662     6.67559978     0.00092581     0.00041165     0.00093465
O         9.05074234    10.16378824     7.03548288     0.00012186     0.00024310    -0.00005093
H         8.95138312    11.11686429     7.04646197    -0.00013394     0.00023299     0.00029985
H         8.83488881     9.88524317     7.92661907    -0.00042925    -0.00017019    -0.00031876
     9
  Step:     3            Position(A)                                  Velocity(au)
C         6.79636606     7.55724500     7.51334621     0.00006576     0.00015078    -0.00008871
N         8.05292113     7.30526240     7.50954975    -0.00010427    -0.00044515    -0.00006016
H         6.38691447     7.93345252     6.56689567    -0.00127196    -0.00034629     0.00043582
H         6.11437666     7.40618822     8.36937799     0.00015538    -0.00043052     0.00078844
H         8.64499274     7.04475106     8.31853085    -0.00051438     0.00085145     0.00051797
H         8.59494861     7.67109200     6.67819265     0.00093215     0.00039677     0.00096154
O         9.05107554    10.16445309     7.03534366     0.00012184     0.00024315    -0.00005088
H         8.95101669    11.11749706     7.04728411    -0.00013404     0.00022973     0.00030141
H         8.83371555     9.88478116     7.92574407    -0.00042883    -0.00016773    -0.00032117
     9
  Step:     4            Position(A)                                  Velocity(au)
C         6.79651487     7.55766285     7.51310618     0.00004300     0.00015484    -0.00008675
N         8.05267267     7.30404052     7.50938186    -0.00007747    -0.00044848    -0.00006265
H         6.38334035     7.93253461     6.56802439    -0.00134152    -0.00032530     0.00038988
H         6.11474792     7.40501378     8.37156385     0.00011709    -0.00042831     0.00080908
H         8.64358721     7.04706547     8.31996055    -0.00051337     0.00084104     0.00052799
H         8.59750587     7.67215665     6.68085865     0.00093783     0.00038189     0.00098807
O         9.05140869    10.16511810     7.03520460     0.00012181     0.00024321    -0.00005083
H         8.95065003    11.11812071     7.04811045    -0.00013411     0.00022632     0.00030292
H         8.83254344     9.88432583     7.92486250    -0.00042842    -0.00016531    -0.00032355
     9
  Step:     5            Position(A)                                  Velocity(au)
C         6.79660121     7.55809185     7.51287175     0.00002010     0.00015894    -0.00008462
N         8.05249741     7.30280954     7.50920711    -0.00005076    -0.00045180    -0.00006518
H         6.37957740     7.93167337     6.56902801    -0.00140995    -0.00030492     0.00034448
H         6.11501706     7.40384571     8.37380303     0.00008071    -0.00042585     0.00082741
H         8.64218499     7.04935092     8.32141853    -0.00051197     0.00083028     0.00053865
H         8.60007779     7.67318062     6.68359665     0.00094291     0.00036704     0.00101413
O         9.05174177    10.16578329     7.03506569     0.00012179     0.00024329    -0.00005077
H         8.95028321    11.11873489     7.04894084    -0.00013416     0.00022281     0.00030438
H         8.83137244     9.88387702     7.92397449    -0.00042801    -0.00016296    -0.00032588
     9
  Step:     6            Position(A)                                  Velocity(au)
C         6.79662478     7.55853210     7.51264340    -0.00000289     0.00016306    -0.00008232
N         8.05239505     7.30156953     7.50902540    -0.00002420    -0.00045508    -0.00006773
H         6.37562899     7.93086695     6.56990844    -0.00147705    -0.00028528     0.00029994
H         6.11518935     7.40268472     8.37608914     0.00004628    -0.00042313     0.00084338
H         8.64078712     7.05160644     8.32290655    -0.00051019     0.00081915     0.00054995
H         8.60266288     7.67416408     6.68640518     0.00094749     0.00035228     0.00103960
O         9.05207479    10.16644869     7.03492692     0.00012177     0.00024337    -0.00005072
H         8.94991629    11.11933930     7.04977516    -0.00013418     0.00021920     0.00030579
H         8.83020256     9.88343456     7.92308018    -0.00042760    -0.00016067    -0.00032815
     9
  Step:     7            Position(A)                                  Velocity(au)
C         6.79658541     7.55898368     7.51242154    -0.00002591     0.00016722    -0.00007988
N         8.05236505     7.30032058     7.50883665     0.00000214    -0.00045833    -0.00007032
H         6.37149908     7.93011311     6.57066844    -0.00154260    -0.00026652     0.00025655
H         6.11527017     7.40153154     8.37841564     0.00001382    -0.00042013     0.00085693
H         8.63939463     7.05383106     8.32442630    -0.00050805     0.00080768     0.00056185
H         8.60525986     7.67510734     6.68928244     0.00095165     0.00033767     0.00106434
O         9.05240774    10.16711434     7.03478831     0.00012174     0.00024346    -0.00005066
H         8.94954932    11.11993374     7.05061326    -0.00013419     0.00021553     0.00030714
H         8.82903378     9.88299827     7.92217975    -0.00042721    -0.00015845    -0.00033036
     9
  Step:     8            Position(A)                                  Velocity(au)
C         6.79648308     7.55944665     7.51220654    -0.00004891     0.00017139    -0.00007731
N         8.05240673     7.29906280     7.50864081     0.00002819    -0.00046154    -0.00007292
H         6.36719214     7.92940930     6.57131156    -0.00160643    -0.00024875     0.00021458
H         6.11526496     7.40038695     8.38077590    -0.00001664    -0.00041684     0.00086805
H         8.63800846     7.05602383     8.32597942    -0.00050559     0.00079586     0.00057433
H         8.60786767     7.67601085     6.69222629     0.00095546     0.00032324     0.00108825
O         9.05274063    10.16778025     7.03464984     0.00012172     0.00024356    -0.00005061
H         8.94918238    11.12051806     7.05145496    -0.00013417     0.00021181     0.00030842
H         8.82786608     9.88256794     7.92127338    -0.00042682    -0.00015632    -0.00033249
     9
  Step:     9            Position(A)                                  Velocity(au)
C         6.79631792     7.55992103     7.51199872    -0.00007184     0.00017557    -0.00007463
N         8.05251923     7.29779634     7.50843785     0.00005390    -0.00046468    -0.00007552
H         6.36271312     7.92875263     6.57184203    -0.00166838    -0.00023209     0.00017429
H         6.11517918     7.39925175     8.38316319    -0.00004510    -0.00041325     0.00087670
H         8.63662946     7.05818380     8.32756744    -0.00050282     0.00078369     0.00058736
H         8.61048548     7.67687519     6.69523431     0.00095901     0.00030904     0.00111120
O         9.05307344    10.16844644     7.03451151     0.00012169     0.00024367    -0.00005056
H         8.94881550    11.12109216     7.05230010    -0.00013414     0.00020807     0.00030965
H         8.82669943     9.88214335     7.92036128    -0.00042644    -0.00015426    -0.00033454
     9
  Step:    10            Position(A)                                  Velocity(au)
C         6.79609019     7.56040686     7.51179834    -0.00009464     0.00017975    -0.00007187
N         8.05270154     7.29652136     7.50822776     0.00007922    -0.00046776    -0.00007813
H         6.35806738     7.92813996     6.57226478    -0.00172832    -0.00021662     0.00013589
H         6.11501830     7.39812679     8.38557078    -0.00007156    -0.00040935     0.00088289
H         8.63525844     7.06031003     8.32919181    -0.00049978     0.00077119     0.00060089
H         8.61311270     7.67770109     6.69830372     0.00096237     0.00029514     0.00113310
O         9.05340618    10.16911292     7.03437333     0.00012166     0.00024378    -0.00005051
H         8.94844874    11.12165605     7.05314851    -0.00013409     0.00020435     0.00031081
H         8.82553379     9.88172424     7.91944369    -0.00042607    -0.00015230    -0.00033651
     9
  Step:    11            Position(A)                                  Velocity(au)
C         6.79580031     7.56090414     7.51160564    -0.00011727     0.00018393    -0.00006903
N         8.05295249     7.29523804     7.50801056     0.00010407    -0.00047077    -0.00008071
H         6.35326054     7.92756791     6.57258527    -0.00178615    -0.00020241     0.00009959
H         6.11478778     7.39701290     8.38799192    -0.00009604    -0.00040514     0.00088662
H         8.63389607     7.06240162     8.33085384    -0.00049650     0.00075836     0.00061488
H         8.61574891     7.67848938     6.70143150     0.00096563     0.00028157     0.00115383
O         9.05373885    10.16977972     7.03423528     0.00012164     0.00024389    -0.00005046
H         8.94808215    11.12220978     7.05399999    -0.00013402     0.00020065     0.00031190
H         8.82436913     9.88131036     7.91852086    -0.00042572    -0.00015044    -0.00033837
     9
  Step:    12            Position(A)                                  Velocity(au)
C         6.79544882     7.56141283     7.51142078    -0.00013967     0.00018810    -0.00006614
N         8.05327074     7.29394659     7.50778632     0.00012842    -0.00047370    -0.00008327
H         6.34829850     7.92703294     6.57280945    -0.00184181    -0.00018952     0.00006554
H         6.11449302     7.39591097     8.39041989    -0.00011856    -0.00040061     0.00088790
H         8.63254295     7.06445768     8.33255474    -0.00049303     0.00074521     0.00062928
H         8.61839395     7.67924107     6.70461430     0.00096887     0.00026839     0.00117330
O         9.05407145    10.17044684     7.03409736     0.00012161     0.00024401    -0.00005041
H         8.94771576    11.12275347     7.05485436    -0.00013394     0.00019702     0.00031292
H         8.82320542     9.88090144     7.91759304    -0.00042538    -0.00014868    -0.00034015
     9
  Step:    13            Position(A)                                  Velocity(au)
C         6.79503642     7.56193289     7.51124389    -0.00016179     0.00019224    -0.00006322
N         8.05365487     7.29264725     7.50755514     0.00015222    -0.00047655    -0.00008578
H         6.34318726     7.92653138     6.57294370    -0.00189526    -0.00017799     0.00003387
H         6.11413935     7.39482187     8.39284803    -0.00013914    -0.00039576     0.00088676
H         8.63119957     7.06647733     8.33429554    -0.00048940     0.00073174     0.00064404
H         8.62104786     7.67995725     6.70784854     0.00097215     0.00025563     0.00119141
O         9.05440397    10.17111428     7.03395958     0.00012159     0.00024413    -0.00005036
H         8.94734962    11.12328733     7.05571141    -0.00013384     0.00019347     0.00031386
H         8.82204260     9.88049719     7.91666052    -0.00042506    -0.00014703    -0.00034181
     9
  Step:    14            Position(A)                                  Velocity(au)
C         6.79456393     7.56246425     7.51107504    -0.00018359     0.00019636    -0.00006027
N         8.05410330     7.29134023     7.50731715     0.00017543    -0.00047931    -0.00008824
H         6.33793288     7.92605946     6.57299468    -0.00194650    -0.00016785     0.00000468
H         6.11373202     7.39374649     8.39526976    -0.00015782    -0.00039058     0.00088323
H         8.62986630     7.06845973     8.33607715    -0.00048566     0.00071797     0.00065909
H         8.62371089     7.68063917     6.71113038     0.00097557     0.00024335     0.00120807
O         9.05473643    10.17178206     7.03382191     0.00012156     0.00024425    -0.00005032
H         8.94698375    11.12381160     7.05657095    -0.00013374     0.00019003     0.00031473
H         8.82088065     9.88009730     7.91572358    -0.00042476    -0.00014549    -0.00034338
     9
  Step:    15            Position(A)                                  Velocity(au)
C         6.79403232     7.56300683     7.51091428    -0.00020501     0.00020044    -0.00005731
N         8.05461434     7.29002580     7.50707252     0.00019801    -0.00048197    -0.00009063
H         6.33254140     7.92561338     6.57296932    -0.00199554    -0.00015910    -0.00002193
H         6.11327618     7.39268571     8.39767860    -0.00017464    -0.00038508     0.00087735
H         8.62854338     7.07040406     8.33790027    -0.00048185     0.00070391     0.00067437
H         8.62638347     7.68128819     6.71445573     0.00097918     0.00023159     0.00122319
O         9.05506881    10.17245016     7.03368436     0.00012153     0.00024437    -0.00005028
H         8.94661817    11.12432663     7.05743275    -0.00013363     0.00018672     0.00031552
H         8.81971950     9.87970146     7.91478251    -0.00042447    -0.00014407    -0.00034483
     9
  Step:    16            Position(A)                                  Velocity(au)
C         6.79344267     7.56356050     7.51076160    -0.00022601     0.00020447    -0.00005436
N         8.05518623     7.28870421     7.50682149     0.00021991    -0.00048454    -0.00009292
H         6.32701880     7.92518933     6.57287472    -0.00204242    -0.00015174    -0.00004593
H         6.11277686     7.39164041     8.40006821    -0.00018965    -0.00037925     0.00086918
H         8.62723095     7.07230955     8.33976545    -0.00047802     0.00068956     0.00068981
H         8.62906625     7.68190578     6.71782030     0.00098306     0.00022039     0.00123671
O         9.05540112    10.17311858     7.03354692     0.00012151     0.00024449    -0.00005024
H         8.94625292    11.12483279     7.05829660    -0.00013350     0.00018356     0.00031623
H         8.81855912     9.87930936     7.91383761    -0.00042420    -0.00014277    -0.00034618
     9
  Step:    17            Position(A)                                  Velocity(au)
C         6.79279621     7.56412512     7.51061697    -0.00024654     0.00020845    -0.00005143
N         8.05581709     7.28737574     7.50656430     0.00024112    -0.00048701    -0.00009512
H         6.32137093     7.92478350     6.57271809    -0.00208718    -0.00014576    -0.00006728
H         6.11223894     7.39061148     8.40243237    -0.00020290    -0.00037311     0.00085878
H         8.62592899     7.07417543     8.34167303    -0.00047421     0.00067494     0.00070534
H         8.63176005     7.68249353     6.72121960     0.00098727     0.00020978     0.00124856
O         9.05573337    10.17378732     7.03340959     0.00012149     0.00024460    -0.00005020
H         8.94588801    11.12533054     7.05916229    -0.00013338     0.00018057     0.00031686
H         8.81739944     9.87892065     7.91288918    -0.00042395    -0.00014159    -0.00034741
     9
  Step:    18            Position(A)                                  Velocity(au)
C         6.79209427     7.56470053     7.51048030    -0.00026657     0.00021236    -0.00004854
N         8.05650496     7.28604066     7.50630126     0.00026159    -0.00048937    -0.00009720
H         6.31560352     7.92439212     6.57250674    -0.00212986    -0.00014116    -0.00008595
H         6.11166715     7.38959978     8.40476506    -0.00021445    -0.00036666     0.00084620
H         8.62463736     7.07600097     8.34362314    -0.00047048     0.00066007     0.00072089
H         8.63446585     7.68305313     6.72464898     0.00099187     0.00019982     0.00125868
O         9.05606556    10.17445636     7.03327236     0.00012146     0.00024471    -0.00005016
H         8.94552345    11.12582039     7.06002959    -0.00013325     0.00017778     0.00031741
H         8.81624043     9.87853499     7.91193753    -0.00042372    -0.00014053    -0.00034854
     9
  Step:    19            Position(A)                                  Velocity(au)
C         6.79133828     7.56528655     7.51035147    -0.00028604     0.00021619    -0.00004570
N         8.05724779     7.28469928     7.50603271     0.00028130    -0.00049162    -0.00009914
H         6.30972221     7.92401147     6.57224802    -0.00217048    -0.00013792    -0.00010191
H         6.11106607     7.38860616     8.40706045    -0.00022435    -0.00035989     0.00083153
H         8.62335580     7.07778549     8.34561573    -0.00046688     0.00064494     0.00073637
H         8.63718479     7.68358638     6.72810363     0.00099691     0.00019052     0.00126702
O         9.05639768    10.17512570     7.03313523     0.00012144     0.00024482    -0.00005013
H         8.94515925    11.12630288     7.06089827    -0.00013311     0.00017521     0.00031787
H         8.81508204     9.87815205     7.91098293    -0.00042350    -0.00013960    -0.00034956
     9
  Step:    20            Position(A)                                  Velocity(au)
C         6.79052983     7.56588295     7.51023035    -0.00023833     0.00017191    -0.00003354
N         8.05804347     7.28335188     7.50575902     0.00023466    -0.00038592    -0.00007890
H         6.30373264     7.92363782     6.57194936    -0.00172656    -0.00010633    -0.00008999
H         6.11044011     7.38763146     8.40931288    -0.00018186    -0.00027577     0.00063687
H         8.62208389     7.07952830     8.34765049    -0.00036223     0.00049207     0.00058752
H         8.63991816     7.68409515     6.73157861     0.00078350     0.00014220     0.00099539
O         9.05672975    10.17579531     7.03299820     0.00009490     0.00019142    -0.00003915
H         8.94479542    11.12677862     7.06176811    -0.00010393     0.00013510     0.00024874
H         8.81392422     9.87777147     7.91002570    -0.00033085    -0.00010849    -0.00027393
     9
  Step:    21            Position(A)                                  Velocity(au)
C         6.78985267     7.56635813     7.51014238    -0.00025666     0.00017558    -0.00003082
N         8.05871049     7.28229369     7.50554089     0.00025285    -0.00038795    -0.00008058
H         6.29895988     7.92334868     6.57168705    -0.00176320    -0.00010568    -0.00010075
H         6.10993246     7.38688720     8.41103029    -0.00018884    -0.00026844     0.00061844
H         8.62109788     7.08085277     8.34927797    -0.00035900     0.00047651     0.00060265
H         8.64206866     7.68447274     6.73430825     0.00078952     0.00013425     0.00100025
O         9.05698924    10.17631891     7.03289117     0.00009488     0.00019151    -0.00003912
H         8.94451138    11.12714503     7.06244879    -0.00010380     0.00013297     0.00024905
H         8.81301974     9.87747579     7.90927543    -0.00033066    -0.00010781    -0.00027475
     9
  Step:    22            Position(A)                                  Velocity(au)
C         6.78912608     7.56684326     7.51006178    -0.00027447     0.00017918    -0.00002816
N         8.05942635     7.28123008     7.50531834     0.00027036    -0.00038988    -0.00008213
H         6.29408927     7.92305982     6.57139835    -0.00179808    -0.00010614    -0.00010927
H         6.10940729     7.38616329     8.41269528    -0.00019470    -0.00026090     0.00059857
H         8.62012044     7.08213444     8.35094653    -0.00035598     0.00046078     0.00061753
H         8.64423621     7.68482940     6.73704919     0.00079599     0.00012690     0.00100363
O         9.05724867    10.17684275     7.03278423     0.00009486     0.00019160    -0.00003909
H         8.94422772    11.12750587     7.06313021    -0.00010366     0.00013104     0.00024929
H         8.81211574     9.87718183     7.90852301    -0.00033049    -0.00010723    -0.00027550
     9
  Step:    23            Position(A)                                  Velocity(au)
C         6.78835155     7.56733811     7.50998837    -0.00029171     0.00018269    -0.00002557
N         8.06018917     7.28016132     7.50509172     0.00028717    -0.00039171    -0.00008355
H         6.28912579     7.92276816     6.57108944    -0.00183110    -0.00010773    -0.00011551
H         6.10886759     7.38546029     8.41430403    -0.00019950    -0.00025315     0.00057735
H         8.61915093     7.08337287     8.35265540    -0.00035322     0.00044489     0.00063209
H         8.64642211     7.68516680     6.73979733     0.00080295     0.00012017     0.00100551
O         9.05750806    10.17736681     7.03267738     0.00009484     0.00019168    -0.00003906
H         8.94394442    11.12786172     7.06381219    -0.00010353     0.00012933     0.00024946
H         8.81121221     9.87688931     7.90776866    -0.00033033    -0.00010676    -0.00027616
     9
  Step:    24            Position(A)                                  Velocity(au)
C         6.78753065     7.56784243     7.50992192    -0.00030836     0.00018611    -0.00002306
N         8.06099696     7.27908773     7.50486137     0.00030325    -0.00039342    -0.00008484
H         6.28407457     7.92247059     6.57076659    -0.00186223    -0.00011047    -0.00011946
H         6.10831617     7.38477877     8.41585292    -0.00020330    -0.00024520     0.00055484
H         8.61818860     7.08456765     8.35440359    -0.00035076     0.00042886     0.00064626
H         8.64862774     7.68548665     6.74254853     0.00081044     0.00011407     0.00100586
O         9.05776739    10.17789107     7.03257061     0.00009483     0.00019175    -0.00003903
H         8.94366147    11.12821321     7.06449454    -0.00010340     0.00012785     0.00024956
H         8.81030909     9.87659794     7.90701260    -0.00033018    -0.00010639    -0.00027675
     9
  Step:    25            Position(A)                                  Velocity(au)
C         6.78666505     7.56835596     7.50986222    -0.00032438     0.00018942    -0.00002064
N         8.06184769     7.27800961     7.50462768     0.00031856    -0.00039502    -0.00008600
H         6.27894084     7.92216400     6.57043609    -0.00189143    -0.00011434    -0.00012111
H         6.10775569     7.38411925     8.41733857    -0.00020616    -0.00023706     0.00053113
H         8.61723257     7.08571840     8.35618993    -0.00034862     0.00041269     0.00065996
H         8.65085457     7.68579070     6.74529862     0.00081846     0.00010863     0.00100469
O         9.05802668    10.17841552     7.03246393     0.00009481     0.00019181    -0.00003900
H         8.94337888    11.12856097     7.06517708    -0.00010328     0.00012661     0.00024959
H         8.80940637     9.87630744     7.90625503    -0.00033005    -0.00010613    -0.00027727
     9
  Step:    26            Position(A)                                  Velocity(au)
C         6.78575651     7.56887842     7.50980902    -0.00033975     0.00019263    -0.00001832
N         8.06273925     7.27692730     7.50439103     0.00033310    -0.00039649    -0.00008701
H         6.27372991     7.92184527     6.57010423    -0.00191868    -0.00011934    -0.00012046
H         6.10718862     7.38348223     8.41875781    -0.00020815    -0.00022875     0.00050632
H         8.61628191     7.08682474     8.35801307    -0.00034685     0.00039639     0.00067313
H         8.65310408     7.68608075     6.74804343     0.00082704     0.00010384     0.00100200
O         9.05828592    10.17894012     7.03235733     0.00009479     0.00019186    -0.00003897
H         8.94309661    11.12890565     7.06585962    -0.00010316     0.00012561     0.00024956
H         8.80850400     9.87601751     7.90549616    -0.00032992    -0.00010597    -0.00027771
     9
  Step:    27            Position(A)                                  Velocity(au)
C         6.78480686     7.56940949     7.50976205    -0.00035444     0.00019572    -0.00001609
N         8.06366950     7.27584113     7.50415181     0.00034685    -0.00039783    -0.00008787
H         6.26844714     7.92151130     6.56977725    -0.00194396    -0.00012547    -0.00011755
H         6.10661727     7.38286817     8.42010773    -0.00020932    -0.00022028     0.00048048
H         8.61533555     7.08788636     8.35987143    -0.00034549     0.00037998     0.00068569
H         8.65537782     7.68635862     6.75077879     0.00083618     0.00009972     0.00099780
O         9.05854513    10.17946485     7.03225081     0.00009478     0.00019191    -0.00003894
H         8.94281467    11.12924795     7.06654199    -0.00010305     0.00012486     0.00024946
H         8.80760196     9.87572786     7.90473617    -0.00032980    -0.00010592    -0.00027808
     9
  Step:    28            Position(A)                                  Velocity(au)
C         6.78381798     7.56994886     7.50972104    -0.00036843     0.00019870    -0.00001396
N         8.06463623     7.27475147     7.50391044     0.00035978    -0.00039904    -0.00008858
H         6.26309794     7.92115903     6.56946132    -0.00196726    -0.00013272    -0.00011239
H         6.10604378     7.38227748     8.42138564    -0.00020975    -0.00021166     0.00045370
H         8.61439235     7.08890293     8.36176329    -0.00034456     0.00036345     0.00069759
H         8.65767734     7.68662613     6.75350060     0.00084589     0.00009627     0.00099210
O         9.05880429    10.17998969     7.03214437     0.00009477     0.00019194    -0.00003891
H         8.94253303    11.12958856     7.06722400    -0.00010294     0.00012437     0.00024930
H         8.80670023     9.87543821     7.90397525    -0.00032970    -0.00010597    -0.00027839
     9
  Step:    29            Position(A)                                  Velocity(au)
C         6.78279183     7.57049620     7.50968569    -0.00038169     0.00020154    -0.00001195
N         8.06563722     7.27365868     7.50366733     0.00037189    -0.00040012    -0.00008914
H         6.25768775     7.92078543     6.56916254    -0.00198857    -0.00014106    -0.00010503
H         6.10547011     7.38171057     8.42258911    -0.00020949    -0.00020290     0.00042607
H         8.61345109     7.08987417     8.36368670    -0.00034409     0.00034683     0.00070875
H         8.66000417     7.68688513     6.75620481     0.00085615     0.00009349     0.00098494
O         9.05906342    10.18051462     7.03203801     0.00009475     0.00019196    -0.00003888
H         8.94225168    11.12992817     7.06790547    -0.00010284     0.00012414     0.00024907
H         8.80579877     9.87514827     7.90321358    -0.00032960    -0.00010613    -0.00027864
     9
  Step:    30            Position(A)                                  Velocity(au)
C         6.78173044     7.57105115     7.50965569    -0.00039420     0.00020426    -0.00001005
N         8.06667019     7.27256314     7.50342292     0.00038317    -0.00040105    -0.00008954
H         6.25222201     7.92038752     6.56888689    -0.00200789    -0.00015049    -0.00009551
H         6.10489806     7.38116778     8.42371594    -0.00020860    -0.00019402     0.00039770
H         8.61251046     7.09079981     8.36563958    -0.00034411     0.00033011     0.00071910
H         8.66235984     7.68713743     6.75888747     0.00086696     0.00009136     0.00097636
O         9.05932252    10.18103959     7.03193173     0.00009474     0.00019198    -0.00003885
H         8.94197060    11.13026749     7.06858622    -0.00010274     0.00012416     0.00024877
H         8.80489757     9.87485777     7.90245131    -0.00032951    -0.00010638    -0.00027883
     9
  Step:    31            Position(A)                                  Velocity(au)
C         6.78063588     7.57161335     7.50963073    -0.00040594     0.00020684    -0.00000826
N         8.06773285     7.27146524     7.50317762     0.00039360    -0.00040184    -0.00008978
H         6.24670614     7.91996238     6.56864018    -0.00202523    -0.00016097    -0.00008389